Program Version,EnergyPlus, Version 9.1.0-fafb9d5652, YMD=2020.03.26 13:27
1,5,Environment Title[],Latitude[deg],Longitude[deg],Time Zone[],Elevation[m]
2,8,Day of Simulation[],Month[],Day of Month[],DST Indicator[1=yes 0=no],Hour[],StartMinute[],EndMinute[],DayType
3,5,Cumulative Day of Simulation[],Month[],Day of Month[],DST Indicator[1=yes 0=no],DayType  ! When Daily Report Variables Requested
4,2,Cumulative Days of Simulation[],Month[]  ! When Monthly Report Variables Requested
5,1,Cumulative Days of Simulation[] ! When Run Period Report Variables Requested
6,1,Calendar Year of Simulation[] ! When Annual Report Variables Requested
7,9,Environment,Site Outdoor Air Drybulb Temperature [C] !Monthly [Value,Min,Day,Hour,Minute,Max,Day,Hour,Minute]
8,1,Environment,Site Outdoor Air Wetbulb Temperature [C] !TimeStep
636,1,BUILDING STORY 1 THERMALZONE,Zone Air Temperature [C] !Hourly
637,7,BUILDING STORY 1 THERMALZONE,Zone Air Relative Humidity [%] !Daily [Value,Min,Hour,Minute,Max,Hour,Minute]
676,1,BUILDING STORY 2 THERMALZONE,Zone Air Temperature [C] !Hourly
677,7,BUILDING STORY 2 THERMALZONE,Zone Air Relative Humidity [%] !Daily [Value,Min,Hour,Minute,Max,Hour,Minute]
716,1,BUILDING STORY 3 THERMALZONE,Zone Air Temperature [C] !Hourly
717,7,BUILDING STORY 3 THERMALZONE,Zone Air Relative Humidity [%] !Daily [Value,Min,Hour,Minute,Max,Hour,Minute]
11,1,Electricity:Facility [J] !TimeStep
214,1,Gas:Facility [J] !TimeStep
End of Data Dictionary
1,BUFFALO NIAGARA INTL AP ANN CLG .4% CONDNS DB=>MWB 1,  42.93, -78.73,  -5.00, 215.00
2,1, 7,21, 0, 1, 0.00,60.00,SummerDesignDay
8,19.36840579326866
11,1055747044.7524053
214,965991312.5437598
2,1, 7,21, 0, 1, 0.00,60.00,SummerDesignDay
636,25.987072546590768
676,29.20343603450669
716,29.156708399545516
2,1, 7,21, 0, 2, 0.00,60.00,SummerDesignDay
8,19.25226217922265
11,942178847.872251
214,563871554.1684337
2,1, 7,21, 0, 2, 0.00,60.00,SummerDesignDay
636,29.74681261344753
676,29.5178145465556
716,29.757866347235248
2,1, 7,21, 0, 3, 0.00,60.00,SummerDesignDay
8,19.164819553782637
11,960705971.6076102
214,542942409.8836458
2,1, 7,21, 0, 3, 0.00,60.00,SummerDesignDay
636,29.983666130573729
676,29.590757276767094
716,29.836720537664865
2,1, 7,21, 0, 4, 0.00,60.00,SummerDesignDay
8,19.0770792448193
11,964586479.6100509
214,542942409.8836458
2,1, 7,21, 0, 4, 0.00,60.00,SummerDesignDay
636,29.978633987240579
676,29.666537487504564
716,29.870397637430977
2,1, 7,21, 0, 5, 0.00,60.00,SummerDesignDay
8,19.018427637799467
11,966138587.7530918
214,542942409.8836458
2,1, 7,21, 0, 5, 0.00,60.00,SummerDesignDay
636,29.97612408770694
676,29.699653349229928
716,29.911500560089555
2,1, 7,21, 0, 6, 0.00,60.00,SummerDesignDay
8,19.0770792448193
11,1111352101.1952487
214,542942409.8836458
2,1, 7,21, 0, 6, 0.00,60.00,SummerDesignDay
636,28.132328725387184
676,26.37603692926537
716,26.385501062833077
2,1, 7,21, 0, 7, 0.00,60.00,SummerDesignDay
8,19.281346189070228
11,1293551664.9626432
214,966860089.4997869
2,1, 7,21, 0, 7, 0.00,60.00,SummerDesignDay
636,26.188724467002037
676,24.22980232203404
716,24.227809091057993
2,1, 7,21, 0, 8, 0.00,60.00,SummerDesignDay
8,19.770887505670989
11,1386682789.0305124
214,1078744518.7871218
2,1, 7,21, 0, 8, 0.00,60.00,SummerDesignDay
636,25.971089619926649
676,23.979337875240245
716,23.977717819668074
2,1, 7,21, 0, 9, 0.00,60.00,SummerDesignDay
8,20.30732185289352
11,1407720653.9310859
214,1075887139.0776706
2,1, 7,21, 0, 9, 0.00,60.00,SummerDesignDay
636,25.967411388239886
676,23.976649582473177
716,23.975612008445684
2,1, 7,21, 0,10, 0.00,60.00,SummerDesignDay
8,20.778037156782458
11,1415453802.0341116
214,1044950935.8747888
2,1, 7,21, 0,10, 0.00,60.00,SummerDesignDay
636,25.96548225885596
676,23.974786488591954
716,23.973659525512518
2,1, 7,21, 0,11, 0.00,60.00,SummerDesignDay
8,21.186337137460165
11,1434873157.9124389
214,1041013244.2120288
2,1, 7,21, 0,11, 0.00,60.00,SummerDesignDay
636,25.964328940478219
676,23.973521909159797
716,23.97233606268581
2,1, 7,21, 0,12, 0.00,60.00,SummerDesignDay
8,21.45495938709981
11,1459050138.7915657
214,1044993612.1899577
2,1, 7,21, 0,12, 0.00,60.00,SummerDesignDay
636,25.96410252794023
676,23.973259718539699
716,23.972114241234278
2,1, 7,21, 0,13, 0.00,60.00,SummerDesignDay
8,21.667839996742449
11,1464721953.387342
214,1041057825.8191409
2,1, 7,21, 0,13, 0.00,60.00,SummerDesignDay
636,25.96407144429047
676,23.97327464383204
716,23.97213844731546
2,1, 7,21, 0,14, 0.00,60.00,SummerDesignDay
8,21.799990419629109
11,1467140987.88292
214,1010756627.7155216
2,1, 7,21, 0,14, 0.00,60.00,SummerDesignDay
636,25.964002899305773
676,23.973301133404605
716,23.972139388799837
2,1, 7,21, 0,15, 0.00,60.00,SummerDesignDay
8,21.799990419629109
11,1461254368.5590008
214,1005569919.7888324
2,1, 7,21, 0,15, 0.00,60.00,SummerDesignDay
636,25.963987535311064
676,23.973322509317414
716,23.972172481669796
2,1, 7,21, 0,16, 0.00,60.00,SummerDesignDay
8,21.641326796728476
11,1452613531.9955927
214,1005545852.0232921
2,1, 7,21, 0,16, 0.00,60.00,SummerDesignDay
636,25.964061564793647
676,23.97333596608097
716,23.97225356711717
2,1, 7,21, 0,17, 0.00,60.00,SummerDesignDay
8,21.42822317147698
11,1436965967.590595
214,1005521291.8467395
2,1, 7,21, 0,17, 0.00,60.00,SummerDesignDay
636,25.964106445899114
676,23.973330924005606
716,23.97228824753823
2,1, 7,21, 0,18, 0.00,60.00,SummerDesignDay
8,21.15931786227956
11,1431562658.2416692
214,1040974276.6743534
2,1, 7,21, 0,18, 0.00,60.00,SummerDesignDay
636,25.96425602285912
676,23.973397474158735
716,23.972394463002407
2,1, 7,21, 0,19, 0.00,60.00,SummerDesignDay
8,20.750583661392644
11,1431213090.87197
214,1075913804.2606292
2,1, 7,21, 0,19, 0.00,60.00,SummerDesignDay
636,25.9648083261189
676,23.973596153538226
716,23.97268220378283
2,1, 7,21, 0,20, 0.00,60.00,SummerDesignDay
8,20.446661088459409
11,1407661583.4466172
214,1078748143.3786493
2,1, 7,21, 0,20, 0.00,60.00,SummerDesignDay
636,25.96588237613915
676,23.9740050566207
716,23.97334327755022
2,1, 7,21, 0,21, 0.00,60.00,SummerDesignDay
8,20.19530361990708
11,1417471060.1876214
214,1072935850.3242315
2,1, 7,21, 0,21, 0.00,60.00,SummerDesignDay
636,25.966700825609938
676,23.974379248449897
716,23.973874340145775
2,1, 7,21, 0,22, 0.00,60.00,SummerDesignDay
8,19.941485234887624
11,1406529861.5847703
214,1061728166.1112584
2,1, 7,21, 0,22, 0.00,60.00,SummerDesignDay
636,25.967189092331937
676,23.974634536962115
716,23.974180667230838
2,1, 7,21, 0,23, 0.00,60.00,SummerDesignDay
8,19.7423381019073
11,1374889815.4889229
214,1052731584.0159414
2,1, 7,21, 0,23, 0.00,60.00,SummerDesignDay
636,25.96752827980532
676,23.974824569770619
716,23.97440666490583
2,1, 7,21, 0,24, 0.00,60.00,SummerDesignDay
8,19.54165603023991
11,1327517030.1810206
214,983349923.013461
2,1, 7,21, 0,24, 0.00,60.00,SummerDesignDay
636,25.967815129738246
676,23.974992105245425
716,23.97461123790234
3,1, 7,21, 0,SummerDesignDay
637,55.788576227227938,52.34027624099937, 2,15,60.046030871561047, 6,10
677,61.15764718829962,54.82079487768283, 1,10,74.77485401959548, 6,20
717,60.64509041403388,55.087434600642577, 1,10,74.25941785965307, 6,10
4,1, 7
7,25.312875000000003,21.0,21, 5,60,30.3,21,14,60
1,BUFFALO NIAGARA INTL AP ANN CLG .4% CONDNS WB=>MDB 1,  42.93, -78.73,  -5.00, 215.00
2,1, 7,21, 0, 1, 0.00,60.00,SummerDesignDay
8,19.615996954992807
11,1045351849.9056158
214,965991312.5437598
2,1, 7,21, 0, 1, 0.00,60.00,SummerDesignDay
636,25.987003410803405
676,28.46006190317709
716,28.369557976363664
2,1, 7,21, 0, 2, 0.00,60.00,SummerDesignDay
8,19.243988037109376
11,933766902.5195283
214,563459006.7683613
2,1, 7,21, 0, 2, 0.00,60.00,SummerDesignDay
636,29.713789524261224
676,28.61156976469767
716,28.779157534843458
2,1, 7,21, 0, 3, 0.00,60.00,SummerDesignDay
8,18.96499632356402
11,952204921.9840977
214,542942409.8836458
2,1, 7,21, 0, 3, 0.00,60.00,SummerDesignDay
636,29.98437439726363
676,28.592628120335215
716,28.764610417708317
2,1, 7,21, 0, 4, 0.00,60.00,SummerDesignDay
8,18.685989379882814
11,955921398.1879882
214,542942409.8836458
2,1, 7,21, 0, 4, 0.00,60.00,SummerDesignDay
636,29.979315731404438
676,28.666570296857903
716,28.826473003182234
2,1, 7,21, 0, 5, 0.00,60.00,SummerDesignDay
8,18.49999810986028
11,957141137.7766582
214,542942409.8836458
2,1, 7,21, 0, 5, 0.00,60.00,SummerDesignDay
636,29.976849534903427
676,28.711718660353289
716,28.870426712951589
2,1, 7,21, 0, 6, 0.00,60.00,SummerDesignDay
8,18.685989379882814
11,1079698909.4490755
214,542942409.8836458
2,1, 7,21, 0, 6, 0.00,60.00,SummerDesignDay
636,28.179479479685534
676,26.35328392382764
716,26.350502593599957
2,1, 7,21, 0, 7, 0.00,60.00,SummerDesignDay
8,19.336990356445314
11,1247964760.91334
214,966860090.6615971
2,1, 7,21, 0, 7, 0.00,60.00,SummerDesignDay
636,26.177930106107977
676,24.23981262182223
716,24.227087700569226
2,1, 7,21, 0, 8, 0.00,60.00,SummerDesignDay
8,20.917992548817627
11,1364194356.7945665
214,1078744518.7895406
2,1, 7,21, 0, 8, 0.00,60.00,SummerDesignDay
636,25.971116958690965
676,23.980512236709065
716,23.978724546595644
2,1, 7,21, 0, 9, 0.00,60.00,SummerDesignDay
8,22.420023807696297
11,1404728514.7959343
214,1075887139.0803698
2,1, 7,21, 0, 9, 0.00,60.00,SummerDesignDay
636,25.967589507144849
676,23.977462376344204
716,23.976333374405426
2,1, 7,21, 0,10, 0.00,60.00,SummerDesignDay
8,22.854695006230427
11,1404878226.2868896
214,1044950935.8780764
2,1, 7,21, 0,10, 0.00,60.00,SummerDesignDay
636,25.96519755610865
676,23.9751976596197
716,23.973992904073737
2,1, 7,21, 0,11, 0.00,60.00,SummerDesignDay
8,23.232104587122938
11,1436414719.8217014
214,1041013244.2154641
2,1, 7,21, 0,11, 0.00,60.00,SummerDesignDay
636,25.963547430613376
676,23.973590968944295
716,23.97231095811948
2,1, 7,21, 0,12, 0.00,60.00,SummerDesignDay
8,23.480593542408348
11,1460540717.8392947
214,1044993612.193136
2,1, 7,21, 0,12, 0.00,60.00,SummerDesignDay
636,25.96308824743311
676,23.973202990338078
716,23.97198357356279
2,1, 7,21, 0,13, 0.00,60.00,SummerDesignDay
8,23.677626430315248
11,1465996866.752839
214,1041057825.8224609
2,1, 7,21, 0,13, 0.00,60.00,SummerDesignDay
636,25.96301414791958
676,23.97318156227535
716,23.971978063204515
2,1, 7,21, 0,14, 0.00,60.00,SummerDesignDay
8,23.799986320868798
11,1468498901.0429488
214,1010756627.7192972
2,1, 7,21, 0,14, 0.00,60.00,SummerDesignDay
636,25.962918773370864
676,23.973165416807093
716,23.97208141941004
2,1, 7,21, 0,15, 0.00,60.00,SummerDesignDay
8,23.799986320868798
11,1459953862.6078487
214,1005569919.7930129
2,1, 7,21, 0,15, 0.00,60.00,SummerDesignDay
636,25.962870971581287
676,23.97317933571816
716,23.972170508954045
2,1, 7,21, 0,16, 0.00,60.00,SummerDesignDay
8,23.653081835774505
11,1453964494.4279869
214,1005545852.0275569
2,1, 7,21, 0,16, 0.00,60.00,SummerDesignDay
636,25.962934993521519
676,23.97316619717853
716,23.972093252678808
2,1, 7,21, 0,17, 0.00,60.00,SummerDesignDay
8,23.4558543827806
11,1438564870.969488
214,1005521291.8510926
2,1, 7,21, 0,17, 0.00,60.00,SummerDesignDay
636,25.96298497740462
676,23.97313237029622
716,23.972061153478508
2,1, 7,21, 0,18, 0.00,60.00,SummerDesignDay
8,23.207119318496696
11,1433229223.4711242
214,1040974276.6779621
2,1, 7,21, 0,18, 0.00,60.00,SummerDesignDay
636,25.963135267976545
676,23.973180154750496
716,23.9721181738333
2,1, 7,21, 0,19, 0.00,60.00,SummerDesignDay
8,22.82933132300861
11,1432625850.4062775
214,1075913804.263277
2,1, 7,21, 0,19, 0.00,60.00,SummerDesignDay
636,25.963702803075515
676,23.97335840731456
716,23.972371485084954
2,1, 7,21, 0,20, 0.00,60.00,SummerDesignDay
8,22.548645905899027
11,1408239091.1030803
214,1078748143.381145
2,1, 7,21, 0,20, 0.00,60.00,SummerDesignDay
636,25.964828119102309
676,23.973752811293307
716,23.973012036017395
2,1, 7,21, 0,21, 0.00,60.00,SummerDesignDay
8,22.312987690310977
11,1418364904.6031085
214,1072935850.3270862
2,1, 7,21, 0,21, 0.00,60.00,SummerDesignDay
636,25.96572380795603
676,23.97415598953761
716,23.973605323501123
2,1, 7,21, 0,22, 0.00,60.00,SummerDesignDay
8,21.475995587251039
11,1398542820.1052173
214,1061728163.7883368
2,1, 7,21, 0,22, 0.00,60.00,SummerDesignDay
636,25.966296333915868
676,23.97450101027009
716,23.974002847550595
2,1, 7,21, 0,23, 0.00,60.00,SummerDesignDay
8,20.824995071347869
11,1359120917.9802829
214,1052731584.0244997
2,1, 7,21, 0,23, 0.00,60.00,SummerDesignDay
636,25.96675619352598
676,23.97466479046158
716,23.974203513076426
2,1, 7,21, 0,24, 0.00,60.00,SummerDesignDay
8,20.173995840857065
11,1304088218.0248974
214,983349923.0304329
2,1, 7,21, 0,24, 0.00,60.00,SummerDesignDay
636,25.967287903551065
676,23.97492149564271
716,23.974514256143374
3,1, 7,21, 0,SummerDesignDay
637,58.067061255313017,54.50606030755763, 2,15,61.815471996202457, 3,60
677,65.22654526759034,59.579567021229667, 8,60,77.76218890267789, 2,60
717,64.71496644012486,59.07208700028506, 8,60,76.72752927281582, 6,12
4,1, 7
7,22.812875000000003,18.5,21, 5,60,27.8,21,14,60
1,BUFFALO NIAGARA INTL AP ANN HTG 99.6% CONDNS DB 1,  42.93, -78.73,  -5.00, 215.00
2,1, 1,21, 0, 1, 0.00,60.00,WinterDesignDay
8,-16.3
11,333854793.50327166
214,2362352824.4990265
2,1, 1,21, 0, 1, 0.00,60.00,WinterDesignDay
636,19.000000000000005
676,20.999999999999969
716,20.999999999999976
2,1, 1,21, 0, 2, 0.00,60.00,WinterDesignDay
8,-16.3
11,301403932.08157488
214,1836968139.202964
2,1, 1,21, 0, 2, 0.00,60.00,WinterDesignDay
636,18.999999999999998
676,20.999999999999987
716,21.000000000000037
2,1, 1,21, 0, 3, 0.00,60.00,WinterDesignDay
8,-16.3
11,301589765.6791017
214,1824969038.254474
2,1, 1,21, 0, 3, 0.00,60.00,WinterDesignDay
636,19.0
676,21.000000000000026
716,20.99999999999993
2,1, 1,21, 0, 4, 0.00,60.00,WinterDesignDay
8,-16.3
11,301403819.61620107
214,1824969600.7615042
2,1, 1,21, 0, 4, 0.00,60.00,WinterDesignDay
636,19.0
676,21.000000000000019
716,20.99999999999996
2,1, 1,21, 0, 5, 0.00,60.00,WinterDesignDay
8,-16.3
11,301403860.2118241
214,1824970129.0570045
2,1, 1,21, 0, 5, 0.00,60.00,WinterDesignDay
636,19.000000000000047
676,20.99999999999994
716,21.000000000000026
2,1, 1,21, 0, 6, 0.00,60.00,WinterDesignDay
8,-16.3
11,301403900.46402117
214,1824970625.2275074
2,1, 1,21, 0, 6, 0.00,60.00,WinterDesignDay
636,19.000000000000026
676,21.000000000000005
716,20.999999999999966
2,1, 1,21, 0, 7, 0.00,60.00,WinterDesignDay
8,-16.3
11,317999944.45972558
214,2357202483.649378
2,1, 1,21, 0, 7, 0.00,60.00,WinterDesignDay
636,19.000000000000015
676,21.000000000000005
716,20.999999999999984
2,1, 1,21, 0, 8, 0.00,60.00,WinterDesignDay
8,-16.3
11,318185786.212598
214,2357201316.6541588
2,1, 1,21, 0, 8, 0.00,60.00,WinterDesignDay
636,18.99999999999996
676,21.000000000000037
716,21.00000000000004
2,1, 1,21, 0, 9, 0.00,60.00,WinterDesignDay
8,-16.3
11,267854354.90171076
214,2357200133.379675
2,1, 1,21, 0, 9, 0.00,60.00,WinterDesignDay
636,19.00000000000003
676,21.00000000000002
716,21.000000000000019
2,1, 1,21, 0,10, 0.00,60.00,WinterDesignDay
8,-16.3
11,350663709.26953259
214,2466264924.3221127
2,1, 1,21, 0,10, 0.00,60.00,WinterDesignDay
636,19.000000000000058
676,21.000000000000015
716,21.00000000000001
2,1, 1,21, 0,11, 0.00,60.00,WinterDesignDay
8,-16.3
11,340641244.6795558
214,2456468811.9423148
2,1, 1,21, 0,11, 0.00,60.00,WinterDesignDay
636,18.99999999999999
676,21.000000000000008
716,21.000000000000005
2,1, 1,21, 0,12, 0.00,60.00,WinterDesignDay
8,-16.3
11,348933305.9852692
214,2476361069.599576
2,1, 1,21, 0,12, 0.00,60.00,WinterDesignDay
636,18.99999999999995
676,21.00000000000004
716,21.00000000000009
2,1, 1,21, 0,13, 0.00,60.00,WinterDesignDay
8,-16.3
11,348344251.89837476
214,2476361389.519595
2,1, 1,21, 0,13, 0.00,60.00,WinterDesignDay
636,19.00000000000002
676,20.999999999999984
716,21.000000000000005
2,1, 1,21, 0,14, 0.00,60.00,WinterDesignDay
8,-16.3
11,340353554.2881354
214,2456473352.4786498
2,1, 1,21, 0,14, 0.00,60.00,WinterDesignDay
636,19.000000000000008
676,21.000000000000026
716,21.000000000000005
2,1, 1,21, 0,15, 0.00,60.00,WinterDesignDay
8,-16.3
11,332609194.6971368
214,2435537911.2093126
2,1, 1,21, 0,15, 0.00,60.00,WinterDesignDay
636,18.999999999999955
676,21.000000000000019
716,21.0
2,1, 1,21, 0,16, 0.00,60.00,WinterDesignDay
8,-16.3
11,332528058.5984701
214,2435527831.7426817
2,1, 1,21, 0,16, 0.00,60.00,WinterDesignDay
636,19.000000000000069
676,21.00000000000001
716,21.0
2,1, 1,21, 0,17, 0.00,60.00,WinterDesignDay
8,-16.3
11,324657013.2457134
214,2434413860.8715889
2,1, 1,21, 0,17, 0.00,60.00,WinterDesignDay
636,18.999999999999994
676,21.000000000000044
716,21.000000000000005
2,1, 1,21, 0,18, 0.00,60.00,WinterDesignDay
8,-16.3
11,382900907.9775232
214,2435540996.2303049
2,1, 1,21, 0,18, 0.00,60.00,WinterDesignDay
636,18.99999999999995
676,21.000000000000026
716,21.0
2,1, 1,21, 0,19, 0.00,60.00,WinterDesignDay
8,-16.3
11,409935470.8043561
214,2476362939.9878828
2,1, 1,21, 0,19, 0.00,60.00,WinterDesignDay
636,18.999999999999976
676,21.00000000000001
716,20.999999999999959
2,1, 1,21, 0,20, 0.00,60.00,WinterDesignDay
8,-16.3
11,411652393.0387377
214,2476363146.361963
2,1, 1,21, 0,20, 0.00,60.00,WinterDesignDay
636,19.000000000000076
676,20.999999999999969
716,20.99999999999998
2,1, 1,21, 0,21, 0.00,60.00,WinterDesignDay
8,-16.3
11,400707398.80303928
214,2476363340.214538
2,1, 1,21, 0,21, 0.00,60.00,WinterDesignDay
636,18.999999999999994
676,20.99999999999999
716,21.00000000000004
2,1, 1,21, 0,22, 0.00,60.00,WinterDesignDay
8,-16.3
11,409600535.10057529
214,2476363522.306795
2,1, 1,21, 0,22, 0.00,60.00,WinterDesignDay
636,18.99999999999995
676,20.99999999999996
716,20.99999999999997
2,1, 1,21, 0,23, 0.00,60.00,WinterDesignDay
8,-16.3
11,382762230.90755799
214,2455942605.0274345
2,1, 1,21, 0,23, 0.00,60.00,WinterDesignDay
636,18.99999999999997
676,20.99999999999998
716,21.00000000000003
2,1, 1,21, 0,24, 0.00,60.00,WinterDesignDay
8,-16.3
11,366896887.8949843
214,2390217715.0008847
2,1, 1,21, 0,24, 0.00,60.00,WinterDesignDay
636,18.99999999999998
676,20.999999999999994
716,21.000000000000015
3,1, 1,21, 0,WinterDesignDay
637,6.666945755425203,6.666945556972055, 1,60,6.6669459538783519, 2,60
677,5.89009236471743,5.890092235236945, 3,60,5.890092580518238, 1,60
717,5.890092350330711,5.890092235236945, 2,60,5.890092580518238, 1,60
4,1, 1
7,-16.300000000000009,-16.3,21, 1,60,-16.3,21, 1,60
End of Data
 Number of Records Written=         444
