Program Version,EnergyPlus, Version 9.1.0-fafb9d5652, YMD=2020.03.26 13:25
1,5,Environment Title[],Latitude[deg],Longitude[deg],Time Zone[],Elevation[m]
2,8,Day of Simulation[],Month[],Day of Month[],DST Indicator[1=yes 0=no],Hour[],StartMinute[],EndMinute[],DayType
3,5,Cumulative Day of Simulation[],Month[],Day of Month[],DST Indicator[1=yes 0=no],DayType  ! When Daily Report Variables Requested
4,2,Cumulative Days of Simulation[],Month[]  ! When Monthly Report Variables Requested
5,1,Cumulative Days of Simulation[] ! When Run Period Report Variables Requested
6,1,Calendar Year of Simulation[] ! When Annual Report Variables Requested
7,9,Environment,Site Outdoor Air Drybulb Temperature [C] !Monthly [Value,Min,Day,Hour,Minute,Max,Day,Hour,Minute]
8,1,Environment,Site Outdoor Air Wetbulb Temperature [C] !TimeStep
636,1,BUILDING STORY 1 THERMALZONE,Zone Air Temperature [C] !Hourly
637,7,BUILDING STORY 1 THERMALZONE,Zone Air Relative Humidity [%] !Daily [Value,Min,Hour,Minute,Max,Hour,Minute]
676,1,BUILDING STORY 2 THERMALZONE,Zone Air Temperature [C] !Hourly
677,7,BUILDING STORY 2 THERMALZONE,Zone Air Relative Humidity [%] !Daily [Value,Min,Hour,Minute,Max,Hour,Minute]
716,1,BUILDING STORY 3 THERMALZONE,Zone Air Temperature [C] !Hourly
717,7,BUILDING STORY 3 THERMALZONE,Zone Air Relative Humidity [%] !Daily [Value,Min,Hour,Minute,Max,Hour,Minute]
11,1,Electricity:Facility [J] !TimeStep
214,1,Gas:Facility [J] !TimeStep
End of Data Dictionary
1,BUFFALO NIAGARA INTL AP ANN CLG .4% CONDNS DB=>MWB 1,  42.93, -78.73,  -5.00, 215.00
2,1, 7,21, 0, 1, 0.00,60.00,SummerDesignDay
8,19.36840579326866
11,4905378647.846202
214,3836421286.9435617
2,1, 7,21, 0, 1, 0.00,60.00,SummerDesignDay
636,25.977904267069989
676,24.0021981540879
716,24.070088126017418
2,1, 7,21, 0, 2, 0.00,60.00,SummerDesignDay
8,19.25226217922265
11,4738311309.899602
214,2219103196.189063
2,1, 7,21, 0, 2, 0.00,60.00,SummerDesignDay
636,26.09371026383963
676,23.98776665813224
716,24.064605195632823
2,1, 7,21, 0, 3, 0.00,60.00,SummerDesignDay
8,19.164819553782637
11,4728792818.460486
214,2157042265.23844
2,1, 7,21, 0, 3, 0.00,60.00,SummerDesignDay
636,26.1156663072332
676,23.970572973435016
716,24.041729892393165
2,1, 7,21, 0, 4, 0.00,60.00,SummerDesignDay
8,19.0770792448193
11,4717772831.625553
214,2157042265.23844
2,1, 7,21, 0, 4, 0.00,60.00,SummerDesignDay
636,26.107088126845804
676,23.956748980412774
716,24.023684233412174
2,1, 7,21, 0, 5, 0.00,60.00,SummerDesignDay
8,19.018427637799467
11,4708921191.346337
214,2157042265.23844
2,1, 7,21, 0, 5, 0.00,60.00,SummerDesignDay
636,26.097722542057985
676,23.943841297820325
716,24.006988984862479
2,1, 7,21, 0, 6, 0.00,60.00,SummerDesignDay
8,19.0770792448193
11,4583568762.856116
214,2157042265.23844
2,1, 7,21, 0, 6, 0.00,60.00,SummerDesignDay
636,26.18948602059094
676,24.00604908548012
716,24.08427193960129
2,1, 7,21, 0, 7, 0.00,60.00,SummerDesignDay
8,19.281346189070228
11,4713398126.063325
214,3816667277.4022438
2,1, 7,21, 0, 7, 0.00,60.00,SummerDesignDay
636,26.055548403332887
676,23.9919109924972
716,24.023953951400516
2,1, 7,21, 0, 8, 0.00,60.00,SummerDesignDay
8,19.770887505670989
11,5192453500.298134
214,4284973305.308163
2,1, 7,21, 0, 8, 0.00,60.00,SummerDesignDay
636,26.00625578329409
676,23.98618313369337
716,23.999238576758203
2,1, 7,21, 0, 9, 0.00,60.00,SummerDesignDay
8,20.30732185289352
11,5292362081.4037899
214,4273601095.9319555
2,1, 7,21, 0, 9, 0.00,60.00,SummerDesignDay
636,25.988380257553133
676,23.984002489943227
716,23.989389562029826
2,1, 7,21, 0,10, 0.00,60.00,SummerDesignDay
8,20.778037156782458
11,5360933759.426913
214,4150489513.214495
2,1, 7,21, 0,10, 0.00,60.00,SummerDesignDay
636,25.981961504964244
676,23.98329158570841
716,23.98546588958214
2,1, 7,21, 0,11, 0.00,60.00,SummerDesignDay
8,21.186337137460165
11,5427896875.575017
214,4134814994.2763397
2,1, 7,21, 0,11, 0.00,60.00,SummerDesignDay
636,25.979716385205945
676,23.98309214652657
716,23.984043918469316
2,1, 7,21, 0,12, 0.00,60.00,SummerDesignDay
8,21.45495938709981
11,5499943831.894474
214,4150692483.039963
2,1, 7,21, 0,12, 0.00,60.00,SummerDesignDay
636,25.97892712154323
676,23.983079989040868
716,23.983550604711455
2,1, 7,21, 0,13, 0.00,60.00,SummerDesignDay
8,21.667839996742449
11,5533613250.869867
214,4110426024.255684
2,1, 7,21, 0,13, 0.00,60.00,SummerDesignDay
636,25.978431140366824
676,23.982967043180687
716,23.983199975037619
2,1, 7,21, 0,14, 0.00,60.00,SummerDesignDay
8,21.799990419629109
11,5582388165.107915
214,4039476372.5958278
2,1, 7,21, 0,14, 0.00,60.00,SummerDesignDay
636,25.97800888579355
676,23.982767174774943
716,23.982873775133226
2,1, 7,21, 0,15, 0.00,60.00,SummerDesignDay
8,21.799990419629109
11,5568507851.072808
214,3993809817.7820265
2,1, 7,21, 0,15, 0.00,60.00,SummerDesignDay
636,25.977849865252776
676,23.98271621354371
716,23.982741531062567
2,1, 7,21, 0,16, 0.00,60.00,SummerDesignDay
8,21.641326796728476
11,5546639723.505306
214,3993734039.2083857
2,1, 7,21, 0,16, 0.00,60.00,SummerDesignDay
636,25.977955117346956
676,23.982745751415277
716,23.98281338631952
2,1, 7,21, 0,17, 0.00,60.00,SummerDesignDay
8,21.42822317147698
11,5516304122.070524
214,3993656945.727334
2,1, 7,21, 0,17, 0.00,60.00,SummerDesignDay
636,25.97817466926724
676,23.98279112808325
716,23.982983551730368
2,1, 7,21, 0,18, 0.00,60.00,SummerDesignDay
8,21.15931786227956
11,5490211080.292228
214,4134781548.763012
2,1, 7,21, 0,18, 0.00,60.00,SummerDesignDay
636,25.978439629017236
676,23.982955979634217
716,23.983192110390428
2,1, 7,21, 0,19, 0.00,60.00,SummerDesignDay
8,20.750583661392644
11,5454210419.5783209
214,4273838941.8868014
2,1, 7,21, 0,19, 0.00,60.00,SummerDesignDay
636,25.978762338432266
676,23.983137198557306
716,23.983432212762425
2,1, 7,21, 0,20, 0.00,60.00,SummerDesignDay
8,20.446661088459409
11,5329111805.770868
214,4285138807.7995145
2,1, 7,21, 0,20, 0.00,60.00,SummerDesignDay
636,25.97905375865097
676,23.983365214862578
716,23.983648456390506
2,1, 7,21, 0,21, 0.00,60.00,SummerDesignDay
8,20.19530361990708
11,5373820778.049592
214,4165443066.947404
2,1, 7,21, 0,21, 0.00,60.00,SummerDesignDay
636,25.978795523125997
676,23.983254528826689
716,23.983432136048767
2,1, 7,21, 0,22, 0.00,60.00,SummerDesignDay
8,19.941485234887624
11,5345981603.896636
214,4273515669.382907
2,1, 7,21, 0,22, 0.00,60.00,SummerDesignDay
636,25.978377966679785
676,23.98301762966853
716,23.983079984968368
2,1, 7,21, 0,23, 0.00,60.00,SummerDesignDay
8,19.7423381019073
11,5230582022.352411
214,4150386069.8453915
2,1, 7,21, 0,23, 0.00,60.00,SummerDesignDay
636,25.978111859850274
676,23.982826622790435
716,23.98284190113722
2,1, 7,21, 0,24, 0.00,60.00,SummerDesignDay
8,19.54165603023991
11,5054976371.396737
214,3972029824.0359108
2,1, 7,21, 0,24, 0.00,60.00,SummerDesignDay
636,25.977982912572423
676,23.982708101379868
716,23.98270525900143
3,1, 7,21, 0,SummerDesignDay
637,55.377076694425458,54.14853153257781,17,60,56.54183014849582, 5,60
677,59.10089179126667,58.3070733507663,18,60,59.85082150460379, 5,60
717,58.98535688303039,57.86694726908307,17,60,60.06191697084694, 5,60
4,1, 7
7,25.312875000000003,21.0,21, 5,60,30.3,21,14,60
1,BUFFALO NIAGARA INTL AP ANN CLG .4% CONDNS WB=>MDB 1,  42.93, -78.73,  -5.00, 215.00
2,1, 7,21, 0, 1, 0.00,60.00,SummerDesignDay
8,19.615996954992807
11,4904843378.69889
214,3836421286.9435617
2,1, 7,21, 0, 1, 0.00,60.00,SummerDesignDay
636,25.977197915735919
676,23.961412791316066
716,24.014470878198787
2,1, 7,21, 0, 2, 0.00,60.00,SummerDesignDay
8,19.243988037109376
11,4720596270.320127
214,2219103196.189063
2,1, 7,21, 0, 2, 0.00,60.00,SummerDesignDay
636,26.019777857811314
676,23.941852703934577
716,23.998150484792455
2,1, 7,21, 0, 3, 0.00,60.00,SummerDesignDay
8,18.96499632356402
11,4687692167.133335
214,2157042265.23844
2,1, 7,21, 0, 3, 0.00,60.00,SummerDesignDay
636,26.017507583351187
676,23.925726512286976
716,23.974702153103537
2,1, 7,21, 0, 4, 0.00,60.00,SummerDesignDay
8,18.685989379882814
11,4654723178.537531
214,2157042265.23844
2,1, 7,21, 0, 4, 0.00,60.00,SummerDesignDay
636,26.001661487312036
676,23.91019223624711
716,23.954210839960749
2,1, 7,21, 0, 5, 0.00,60.00,SummerDesignDay
8,18.49999810986028
11,4631920133.565871
214,2157042265.23844
2,1, 7,21, 0, 5, 0.00,60.00,SummerDesignDay
636,25.98696501748415
676,23.895928337607477
716,23.935438008609368
2,1, 7,21, 0, 6, 0.00,60.00,SummerDesignDay
8,18.685989379882814
11,4518750389.751021
214,2157042265.23844
2,1, 7,21, 0, 6, 0.00,60.00,SummerDesignDay
636,26.07412547482422
676,23.95513585442064
716,24.00913554361635
2,1, 7,21, 0, 7, 0.00,60.00,SummerDesignDay
8,19.336990356445314
11,4669155139.998441
214,3816667277.4022438
2,1, 7,21, 0, 7, 0.00,60.00,SummerDesignDay
636,26.012403953285518
676,23.97111239146004
716,23.992954878493039
2,1, 7,21, 0, 8, 0.00,60.00,SummerDesignDay
8,20.917992548817627
11,5267200302.670209
214,4284973305.308163
2,1, 7,21, 0, 8, 0.00,60.00,SummerDesignDay
636,25.989946386421275
676,23.97770025018796
716,23.98650798159563
2,1, 7,21, 0, 9, 0.00,60.00,SummerDesignDay
8,22.420023807696297
11,5486789828.504358
214,4273601095.9319555
2,1, 7,21, 0, 9, 0.00,60.00,SummerDesignDay
636,25.98181591995591
676,23.980398222432073
716,23.98399008806082
2,1, 7,21, 0,10, 0.00,60.00,SummerDesignDay
8,22.854695006230427
11,5550188700.553472
214,4150489513.214495
2,1, 7,21, 0,10, 0.00,60.00,SummerDesignDay
636,25.978798923573075
676,23.981565832206966
716,23.982958070601979
2,1, 7,21, 0,11, 0.00,60.00,SummerDesignDay
8,23.232104587122938
11,5610245941.542015
214,4134814994.2763397
2,1, 7,21, 0,11, 0.00,60.00,SummerDesignDay
636,25.977813453450574
676,23.98212819072436
716,23.982748281967099
2,1, 7,21, 0,12, 0.00,60.00,SummerDesignDay
8,23.480593542408348
11,5677716160.959796
214,4150692483.039963
2,1, 7,21, 0,12, 0.00,60.00,SummerDesignDay
636,25.97753282890706
676,23.982455073158087
716,23.982783341558308
2,1, 7,21, 0,13, 0.00,60.00,SummerDesignDay
8,23.677626430315248
11,5707166124.025001
214,4110426024.255684
2,1, 7,21, 0,13, 0.00,60.00,SummerDesignDay
636,25.977216877555976
676,23.982482475024104
716,23.982646599519329
2,1, 7,21, 0,14, 0.00,60.00,SummerDesignDay
8,23.799986320868798
11,5752131813.641986
214,4039476372.5958278
2,1, 7,21, 0,14, 0.00,60.00,SummerDesignDay
636,25.97684893377385
676,23.982339161061867
716,23.982406056641059
2,1, 7,21, 0,15, 0.00,60.00,SummerDesignDay
8,23.799986320868798
11,5743703908.802479
214,3993809817.7820265
2,1, 7,21, 0,15, 0.00,60.00,SummerDesignDay
636,25.976724507937694
676,23.982326678858944
716,23.98351530017393
2,1, 7,21, 0,16, 0.00,60.00,SummerDesignDay
8,23.653081835774505
11,5728380590.446316
214,3993734039.2083857
2,1, 7,21, 0,16, 0.00,60.00,SummerDesignDay
636,25.976867030130916
676,23.982388289532257
716,23.98350588645434
2,1, 7,21, 0,17, 0.00,60.00,SummerDesignDay
8,23.4558543827806
11,5695318150.600041
214,3993656945.727334
2,1, 7,21, 0,17, 0.00,60.00,SummerDesignDay
636,25.97711614311984
676,23.982454204923429
716,23.982165127368576
2,1, 7,21, 0,18, 0.00,60.00,SummerDesignDay
8,23.207119318496696
11,5672422622.396607
214,4134781548.763012
2,1, 7,21, 0,18, 0.00,60.00,SummerDesignDay
636,25.977406190705425
676,23.982640839301447
716,23.982654970110504
2,1, 7,21, 0,19, 0.00,60.00,SummerDesignDay
8,22.82933132300861
11,5645599019.295218
214,4273838941.8868014
2,1, 7,21, 0,19, 0.00,60.00,SummerDesignDay
636,25.97775991253412
676,23.982849588577829
716,23.983113765802963
2,1, 7,21, 0,20, 0.00,60.00,SummerDesignDay
8,22.548645905899027
11,5529735910.567171
214,4285138807.7995145
2,1, 7,21, 0,20, 0.00,60.00,SummerDesignDay
636,25.978064610085
676,23.983085356132187
716,23.98336290936092
2,1, 7,21, 0,21, 0.00,60.00,SummerDesignDay
8,22.312987690310977
11,5580439617.030596
214,4165443066.947404
2,1, 7,21, 0,21, 0.00,60.00,SummerDesignDay
636,25.977767289935934
676,23.982955466377545
716,23.98311334052062
2,1, 7,21, 0,22, 0.00,60.00,SummerDesignDay
8,21.475995587251039
11,5480905080.571617
214,4273515669.382907
2,1, 7,21, 0,22, 0.00,60.00,SummerDesignDay
636,25.977286939071609
676,23.98267886497213
716,23.982721230815529
2,1, 7,21, 0,23, 0.00,60.00,SummerDesignDay
8,20.824995071347869
11,5310891849.3199839
214,4150386069.8453915
2,1, 7,21, 0,23, 0.00,60.00,SummerDesignDay
636,25.977100397840734
676,23.9824863734299
716,23.98248176101293
2,1, 7,21, 0,24, 0.00,60.00,SummerDesignDay
8,20.173995840857065
11,5082638731.156764
214,3972029824.0359108
2,1, 7,21, 0,24, 0.00,60.00,SummerDesignDay
636,25.977120415588023
676,23.982380078899728
716,23.982358237273944
3,1, 7,21, 0,SummerDesignDay
637,56.241373648406099,55.13416905149131,17,60,57.03947359660051,22,60
677,59.62347798661846,58.856910785014338,18,60,60.15463567113313, 1,60
717,59.61398458117441,58.40799268227236,18,60,60.41596887075844, 5,60
4,1, 7
7,22.812875000000003,18.5,21, 5,60,27.8,21,14,60
1,BUFFALO NIAGARA INTL AP ANN HTG 99.6% CONDNS DB 1,  42.93, -78.73,  -5.00, 215.00
2,1, 1,21, 0, 1, 0.00,60.00,WinterDesignDay
8,-16.3
11,1023072659.4202018
214,9421034886.39226
2,1, 1,21, 0, 1, 0.00,60.00,WinterDesignDay
636,18.993860741543739
676,20.988161069498106
716,21.005632178065999
2,1, 1,21, 0, 2, 0.00,60.00,WinterDesignDay
8,-16.3
11,894193415.2475758
214,7331900388.827412
2,1, 1,21, 0, 2, 0.00,60.00,WinterDesignDay
636,18.993859259023787
676,20.98803572624365
716,21.00564106427442
2,1, 1,21, 0, 3, 0.00,60.00,WinterDesignDay
8,-16.3
11,894133539.8419373
214,7286761489.298606
2,1, 1,21, 0, 3, 0.00,60.00,WinterDesignDay
636,18.993857865707569
676,20.98791350378876
716,21.00564961106239
2,1, 1,21, 0, 4, 0.00,60.00,WinterDesignDay
8,-16.3
11,894133580.508876
214,7286762734.731356
2,1, 1,21, 0, 4, 0.00,60.00,WinterDesignDay
636,18.993856556226964
676,20.98779432449314
716,21.005657831393994
2,1, 1,21, 0, 5, 0.00,60.00,WinterDesignDay
8,-16.3
11,894133620.8302995
214,7286763949.797956
2,1, 1,21, 0, 5, 0.00,60.00,WinterDesignDay
636,18.993855325538254
676,20.987678112641555
716,21.005665737739908
2,1, 1,21, 0, 6, 0.00,60.00,WinterDesignDay
8,-16.3
11,894319122.2137194
214,7286765135.2414
2,1, 1,21, 0, 6, 0.00,60.00,WinterDesignDay
636,18.99385416890027
676,20.987564794401537
716,21.005673342093475
2,1, 1,21, 0, 7, 0.00,60.00,WinterDesignDay
8,-16.3
11,955675608.4104583
214,9387478542.01993
2,1, 1,21, 0, 7, 0.00,60.00,WinterDesignDay
636,18.993853081857183
676,20.987454297775196
716,21.005680655988419
2,1, 1,21, 0, 8, 0.00,60.00,WinterDesignDay
8,-16.3
11,955675649.3402028
214,9387463317.014439
2,1, 1,21, 0, 8, 0.00,60.00,WinterDesignDay
636,18.993852060221358
676,20.987346552552287
716,21.00568769052143
2,1, 1,21, 0, 9, 0.00,60.00,WinterDesignDay
8,-16.3
11,760849150.2715869
214,9387448240.254424
2,1, 1,21, 0, 9, 0.00,60.00,WinterDesignDay
636,18.99385110005828
676,20.98724149026792
716,21.005694456361856
2,1, 1,21, 0,10, 0.00,60.00,WinterDesignDay
8,-16.3
11,1088819638.7389823
214,9851416766.260748
2,1, 1,21, 0,10, 0.00,60.00,WinterDesignDay
636,18.99385019766797
676,20.98713904415775
716,21.005700963772094
2,1, 1,21, 0,11, 0.00,60.00,WinterDesignDay
8,-16.3
11,1049319493.8343223
214,9795467089.809674
2,1, 1,21, 0,11, 0.00,60.00,WinterDesignDay
636,18.993849349574306
676,20.987039149116194
716,21.005707222625625
2,1, 1,21, 0,12, 0.00,60.00,WinterDesignDay
8,-16.3
11,1080676989.1187933
214,9874588472.119233
2,1, 1,21, 0,12, 0.00,60.00,WinterDesignDay
636,18.993848552511034
676,20.98694174165702
716,21.0057132424153
2,1, 1,21, 0,13, 0.00,60.00,WinterDesignDay
8,-16.3
11,1078143831.6720579
214,9874589469.496365
2,1, 1,21, 0,13, 0.00,60.00,WinterDesignDay
636,18.993847803407144
676,20.986846759871776
716,21.005719032272066
2,1, 1,21, 0,14, 0.00,60.00,WinterDesignDay
8,-16.3
11,1048425572.0773635
214,9795485117.539914
2,1, 1,21, 0,14, 0.00,60.00,WinterDesignDay
636,18.993847099376838
676,20.986754143390365
716,21.00572460097942
2,1, 1,21, 0,15, 0.00,60.00,WinterDesignDay
8,-16.3
11,1017782904.6604571
214,9712216590.739708
2,1, 1,21, 0,15, 0.00,60.00,WinterDesignDay
636,18.99384643770797
676,20.986663833343429
716,21.005729956984895
2,1, 1,21, 0,16, 0.00,60.00,WinterDesignDay
8,-16.3
11,1017334192.8285
214,9712185141.645987
2,1, 1,21, 0,16, 0.00,60.00,WinterDesignDay
636,18.993845815851956
676,20.986575772325076
716,21.005735108412094
2,1, 1,21, 0,17, 0.00,60.00,WinterDesignDay
8,-16.3
11,985517745.5664266
214,9707760484.96892
2,1, 1,21, 0,17, 0.00,60.00,WinterDesignDay
636,18.993845231413343
676,20.986489904357265
716,21.00574006307431
2,1, 1,21, 0,18, 0.00,60.00,WinterDesignDay
8,-16.3
11,1213063878.8219887
214,9712246811.916594
2,1, 1,21, 0,18, 0.00,60.00,WinterDesignDay
636,18.99384468214044
676,20.986406174852978
716,21.00574482848963
2,1, 1,21, 0,19, 0.00,60.00,WinterDesignDay
8,-16.3
11,1314836853.5090509
214,9874594963.434285
2,1, 1,21, 0,19, 0.00,60.00,WinterDesignDay
636,18.993844165917463
676,20.986324530582125
716,21.005749411884037
2,1, 1,21, 0,20, 0.00,60.00,WinterDesignDay
8,-16.3
11,1323307454.612438
214,9874595802.563328
2,1, 1,21, 0,20, 0.00,60.00,WinterDesignDay
636,18.993843680755707
676,20.9862449196389
716,21.005753820211383
2,1, 1,21, 0,21, 0.00,60.00,WinterDesignDay
8,-16.3
11,1282176431.7016867
214,9874596621.230242
2,1, 1,21, 0,21, 0.00,60.00,WinterDesignDay
636,18.993843224785978
676,20.986167291408525
716,21.005758060157804
2,1, 1,21, 0,22, 0.00,60.00,WinterDesignDay
8,-16.3
11,1317409097.777553
214,9874597419.932005
2,1, 1,21, 0,22, 0.00,60.00,WinterDesignDay
636,18.99384279625223
676,20.986091596534988
716,21.005762138157097
2,1, 1,21, 0,23, 0.00,60.00,WinterDesignDay
8,-16.3
11,1212029782.8089343
214,9747907796.776139
2,1, 1,21, 0,23, 0.00,60.00,WinterDesignDay
636,18.993842393503117
676,20.986017786889549
716,21.005766060391705
2,1, 1,21, 0,24, 0.00,60.00,WinterDesignDay
8,-16.3
11,1148937468.845995
214,9579697413.978417
2,1, 1,21, 0,24, 0.00,60.00,WinterDesignDay
636,18.993842014987889
676,20.985945815539304
716,21.005769832814129
3,1, 1,21, 0,WinterDesignDay
637,6.669506154855494,6.6695013899256339, 1,60,6.669509331476747,24,60
677,5.894818799665109,5.8943806580199189, 1,60,5.895183119481909,24,60
717,5.8880252575036489,5.888003700350207,24,60,5.888053746396828, 1,60
4,1, 1
7,-16.300000000000009,-16.3,21, 1,60,-16.3,21, 1,60
End of Data
 Number of Records Written=         444
