Program Version,EnergyPlus, Version 9.1.0-fafb9d5652, YMD=2020.03.26 13:29
1,5,Environment Title[],Latitude[deg],Longitude[deg],Time Zone[],Elevation[m]
2,8,Day of Simulation[],Month[],Day of Month[],DST Indicator[1=yes 0=no],Hour[],StartMinute[],EndMinute[],DayType
3,5,Cumulative Day of Simulation[],Month[],Day of Month[],DST Indicator[1=yes 0=no],DayType  ! When Daily Report Variables Requested
4,2,Cumulative Days of Simulation[],Month[]  ! When Monthly Report Variables Requested
5,1,Cumulative Days of Simulation[] ! When Run Period Report Variables Requested
6,1,Calendar Year of Simulation[] ! When Annual Report Variables Requested
1843,1,Heating:Electricity [J] !TimeStep
1818,1,Heating:Gas [J] !TimeStep
1703,1,Cooling:Electricity [J] !TimeStep
45,1,InteriorLights:Electricity [J] !TimeStep
1627,1,ExteriorLights:Electricity [J] !TimeStep
334,1,InteriorEquipment:Electricity [J] !TimeStep
566,1,InteriorEquipment:Gas [J] !TimeStep
1593,1,Fans:Electricity [J] !TimeStep
1868,1,Pumps:Electricity [J] !TimeStep
1754,1,HeatRejection:Electricity [J] !TimeStep
1779,1,HeatRejection:Water [m3] !TimeStep
689,1,WaterSystems:Gas [J] !TimeStep
740,1,WaterSystems:Water [m3] !TimeStep
9,1,Electricity:Facility [J] !TimeStep
530,1,Gas:Facility [J] !TimeStep
716,1,Water:Facility [m3] !TimeStep
End of Data Dictionary
1,RUN PERIOD 1,  42.93, -78.73,  -5.00, 215.00
2,1, 1, 1, 0, 1, 0.00,60.00,Tuesday
9,2463352224.073649
45,160422196.35945288
334,691621867.9882716
530,2658949535.7326896
566,114942481.37118849
689,404701.12771550696
716,1.0468685523902249
740,0.024408613366517924
1593,216426837.53030286
1627,450409559.03999999
1703,734088269.1466498
1754,15687862.097758102
1779,1.0224599390237069
1818,2543602353.233785
1843,0.0
1868,194695631.91121338
2,1, 1, 1, 0, 2, 0.00,60.00,Tuesday
9,1302567001.7541176
45,160422196.35945288
334,691621867.9882716
530,142220359.91748689
566,114942481.37118849
689,27277878.54629838
716,0.024408613366517924
740,0.024408613366517924
1593,0.0
1627,450409559.03999999
1703,0.0
1754,0.0
1779,0.0
1818,0.0
1843,0.0
1868,113378.36639317825
2,1, 1, 1, 0, 3, 0.00,60.00,Tuesday
9,2457218603.907129
45,160422196.35945288
334,691621867.9882716
530,2648070716.4262526
566,114942481.37118849
689,27125916.705976935
716,1.0748550106827424
740,0.024408613366517924
1593,216426837.53030286
1627,450409559.03999999
1703,728325129.7815492
1754,15392658.14933699
1779,1.0504463973162244
1818,2506002318.3490869
1843,0.0
1868,194620355.05821566
2,1, 1, 1, 0, 4, 0.00,60.00,Tuesday
9,1827983333.7069259
45,160422196.35945288
334,795296064.9030184
530,255316644.73406825
566,114942481.37118849
689,23294848.272574344
716,0.38562759946127259
740,0.024408613366517924
1593,40895365.670655269
1627,450409559.03999999
1703,222754052.14358659
1754,5388304.611965319
1779,0.36121898609475469
1818,117079315.09030542
1843,0.0
1868,152817790.97824747
2,1, 1, 1, 0, 5, 0.00,60.00,Tuesday
9,2748327014.0348298
45,481266589.07835856
334,1152703113.3137866
530,4143441030.9330089
566,191570802.28531418
689,24171549.435793275
716,0.2581317415653148
740,0.024408613366517924
1593,401890696.2144807
1627,450409559.03999999
1703,63736569.44042122
1754,2138238.217937297
1779,0.23372312819879688
1818,3927698679.211901
1843,0.0
1868,196182248.72984497
2,1, 1, 1, 0, 6, 0.00,60.00,Tuesday
9,2784289333.028569
45,481266589.07835856
334,1344149967.4088188
530,4009499156.987797
566,191570802.28531418
689,25527258.105917723
716,0.14055485789664069
740,0.024408613366517924
1593,396307295.4367649
1627,450409559.03999999
1703,10957019.059832767
1754,593162.9646114013
1779,0.11614624453012278
1818,3792401096.596565
1843,0.0
1868,100605740.04018286
2,1, 1, 1, 0, 7, 0.00,60.00,Tuesday
9,4675878353.514233
45,962533178.1567171
334,2555368185.5094625
530,3946597191.146961
566,383141604.57062837
689,21064579.886151859
716,0.2992509116831793
740,0.024408613366517924
1593,401890696.21448078
1627,457419741.7137967
1703,100248306.47818528
1754,2832713.511995071
1779,0.2748422983166614
1818,3542391006.690181
1843,0.0
1868,195585531.92959575
2,1, 1, 1, 0, 8, 0.00,60.00,Tuesday
9,4891501605.477434
45,1443799767.2350755
334,2305406226.627573
530,3742971593.153949
566,383141604.57062837
689,112384316.8358987
716,0.7228421847275144
740,0.41494642723080468
1593,398342418.0250204
1627,457419741.7137967
1703,88899087.40455647
1754,2601427.9333945855
1779,0.3078957574967097
1818,3247445671.7474219
1843,0.0
1868,195032936.53801886
2,1, 1, 1, 0, 9, 0.00,60.00,Tuesday
9,4491811518.531729
45,1443799767.2350755
334,2305406226.627573
530,4223709392.77474
566,383141604.57062837
689,388309540.232525
716,1.7283063191574888
740,1.4156995752580395
1593,406426653.79260507
1627,0.0
1703,137278644.69685409
1754,3592548.0270179987
1779,0.3126067438994492
1818,3452258247.971587
1843,0.0
1868,195307678.1526028
2,1, 1, 1, 0,10, 0.00,60.00,Tuesday
9,4496190113.647545
45,1443799767.2350755
334,2305406226.627573
530,3510489404.1625807
566,383141604.57062837
689,438814398.0069203
716,1.9366109370340788
740,1.6109684821901827
1593,406373214.9322518
1627,0.0
1703,142815517.19710265
1754,3772869.342036238
1779,0.325642454843896
1818,2688533401.585032
1843,0.0
1868,194022518.31350414
2,1, 1, 1, 0,11, 0.00,60.00,Tuesday
9,4546124923.985243
45,1443799767.2350755
334,2305406226.627573
530,3796469768.2830007
566,383141604.57062837
689,504615540.99800768
716,2.3668696978255294
740,1.9038718425883979
1593,409067502.10963585
1627,0.0
1703,188787639.0405172
1754,4771103.295381851
1779,0.46299785523713146
1818,2908712622.7143647
1843,0.0
1868,194292685.67705945
2,1, 1, 1, 0,12, 0.00,60.00,Tuesday
9,4539126004.824604
45,1443799767.2350755
334,2305406226.627573
530,3712072726.8093526
566,383141604.57062837
689,531680668.6025681
716,2.4223055075015296
740,2.0015062960544696
1593,408598012.11219689
1627,0.0
1703,182502157.81857015
1754,4677403.436944171
1779,0.4207992114470598
1818,2797250453.636156
1843,0.0
1868,194142437.59424386
2,1, 1, 1, 0,13, 0.00,60.00,Tuesday
9,4553028931.0255789
45,1443799767.2350755
334,2305406226.627573
530,3364789912.4345505
566,383141604.57062837
689,460011269.28523817
716,2.117583205966843
740,1.7330115490227723
1593,412212858.316383
1627,0.0
1703,192975815.87332616
1754,4923945.937825611
1779,0.3845716569440707
1818,2521637038.578684
1843,0.0
1868,193710317.03539539
2,1, 1, 1, 0,14, 0.00,60.00,Tuesday
9,4576666017.667229
45,1443799767.2350755
334,2305406226.627573
530,3078826678.9333117
566,383141604.57062837
689,540905001.4474542
716,2.471262119828389
740,2.0015062960544696
1593,412113386.80011466
1627,0.0
1703,216661929.34903927
1754,5490578.9565311
1779,0.4697558237739193
1818,2154780072.915229
1843,0.0
1868,193194128.69889394
2,1, 1, 1, 0,15, 0.00,60.00,Tuesday
9,4596667638.649526
45,1443799767.2350755
334,2305406226.627573
530,3041893961.855502
566,383141604.57062837
689,502159238.9697002
716,2.3457772123361928
740,1.9038718425883979
1593,414044098.2991011
1627,0.0
1703,234337625.7221224
1754,5912400.437222916
1779,0.4419053697477949
1818,2156593118.3151738
1843,0.0
1868,193167520.32843004
2,1, 1, 1, 0,16, 0.00,60.00,Tuesday
9,4578153895.217047
45,1443799767.2350755
334,2305406226.627573
530,3148567752.2079069
566,383141604.57062837
689,495450532.6472464
716,2.2308676705806937
740,1.8062373891223258
1593,410994870.7514103
1627,0.0
1703,219037966.0550204
1754,5595877.835041238
1779,0.4246302814583679
1818,2269975614.990032
1843,0.0
1868,193319186.7129251
2,1, 1, 1, 0,17, 0.00,60.00,Tuesday
9,4584756094.625128
45,1443799767.2350755
334,2305406226.627573
530,3251865197.3395006
566,383141604.57062837
689,415835262.29453656
716,1.969263294928111
740,1.537742642090629
1593,410807864.2062917
1627,0.0
1703,225442968.9213392
1754,5723718.383203946
1779,0.43152065283748189
1818,2452888330.4743359
1843,0.0
1868,193575549.25164435
2,1, 1, 1, 0,18, 0.00,60.00,Tuesday
9,5254118747.031106
45,1443799767.2350755
334,2555368185.5094625
530,3106541876.374725
566,383141604.57062837
689,278580102.9661197
716,1.3474104089302342
740,1.0007531480272348
1593,409061459.28172448
1627,457419741.7137967
1703,189980194.93448565
1754,4904497.10449145
1779,0.34665726090299955
1818,2444820168.837977
1843,0.0
1868,193584901.25207234
2,1, 1, 1, 0,19, 0.00,60.00,Tuesday
9,3024231127.4934389
45,962533178.1567171
334,1152703113.3137866
530,2831289758.0400817
566,191570802.28531418
689,131832861.7410921
716,0.48474235108293037
740,0.43935504059732258
1593,396307295.43676486
1627,457419741.7137967
1703,19770089.257391875
1754,570261.3591487241
1779,0.04538731048560781
1818,2507886094.013675
1843,0.0
1868,34927448.25583216
2,1, 1, 1, 0,20, 0.00,60.00,Tuesday
9,3163811725.0717675
45,962533178.1567171
334,1344149967.4088188
530,2982757311.822916
566,191570802.28531418
689,131239755.5399363
716,0.4393550405973226
740,0.4393550405973226
1593,396307295.4367649
1627,457419741.7137967
1703,0.0
1754,0.0
1779,0.0
1818,2659946753.9976656
1843,0.0
1868,3401542.3556693487
2,1, 1, 1, 0,21, 0.00,60.00,Tuesday
9,2278790770.6351587
45,481266589.07835856
334,691621867.9882716
530,3850665911.6933715
566,114942481.37118849
689,131159995.88894022
716,0.6200669522965403
740,0.4393550405973226
1593,401890696.21448078
1627,457419741.7137967
1703,49330583.36147845
1754,1770283.7547654552
1779,0.1807119116992177
1818,3604563434.433243
1843,0.0
1868,195491008.5240072
2,1, 1, 1, 0,22, 0.00,60.00,Tuesday
9,2135456791.0891009
45,481266589.07835856
334,795296064.9030184
530,3897687891.5548355
566,114942481.37118849
689,72708332.17452187
716,0.2440861336651792
740,0.2440861336651792
1593,396307295.4367649
1627,457419741.7137967
1703,0.0
1754,0.0
1779,0.0
1818,3710037078.0091249
1843,0.0
1868,5167099.957162523
2,1, 1, 1, 0,23, 0.00,60.00,Tuesday
9,2281091061.4495499
45,160422196.35945288
334,691621867.9882716
530,2110440222.3302112
566,114942481.37118849
689,22400695.51593733
716,0.9046295372855236
740,0.024408613366517924
1593,171693578.62976248
1627,457419741.7137967
1703,593889928.6882804
1754,12477163.133673804
1779,0.8802209239190058
1818,1973097045.4430855
1843,0.0
1868,193566584.936312
2,1, 1, 1, 0,24, 0.00,60.00,Tuesday
9,1425618014.9200977
45,160422196.35945288
334,691621867.9882716
530,344155070.6088015
566,114942481.37118849
689,22395982.98816708
716,0.12704392872562846
740,0.02440861336651792
1593,20573081.420062048
1627,457419741.7137967
1703,59059661.28817152
1754,1483514.8439414178
1779,0.10263531535911053
1818,206816606.24944593
1843,0.0
1868,35037951.30640171
2,2, 1, 2, 0, 1, 0.00,60.00,Wednesday
9,2462712987.2109105
45,160422196.35945288
334,691621867.9882716
530,2724828523.6889727
566,114942481.37118849
689,22221368.299531375
716,1.0585220418475417
740,0.024408613366517924
1593,216426837.53030286
1627,450409559.03999999
1703,733906265.625518
1754,15145798.54467455
1779,1.0341134284810237
1818,2587664674.0182526
1843,0.0
1868,194780462.12269078
2,2, 1, 2, 0, 2, 0.00,60.00,Wednesday
9,1855412172.3688207
45,160422196.35945288
334,691621867.9882716
530,1276789559.0705353
566,114942481.37118849
689,22459579.950431378
716,0.491158497028752
740,0.02440861336651792
1593,92578866.3902792
1627,450409559.03999999
1703,295897357.3532956
1754,6754103.824153848
1779,0.4667498836622341
1818,1139387497.7489155
1843,0.0
1868,157728221.41336749
2,2, 1, 2, 0, 3, 0.00,60.00,Wednesday
9,2445395754.882158
45,160422196.35945288
334,691621867.9882716
530,3146529752.140613
566,114942481.37118849
689,22361196.439764915
716,0.9968178014532708
740,0.024408613366517924
1593,216426837.53030289
1627,450409559.03999999
1703,715433442.0008488
1754,14873995.09760486
1779,0.9724091880867529
1818,3009226074.3296597
1843,0.0
1868,196207856.8656771
2,2, 1, 2, 0, 4, 0.00,60.00,Wednesday
9,2085461536.6133333
45,160422196.35945288
334,795296064.9030184
530,1374344195.795379
566,114942481.37118849
689,22381691.901697399
716,0.604648188495686
740,0.024408613366517924
1593,113151947.81034124
1627,450409559.03999999
1703,365118487.0898935
1754,8436583.959443806
1779,0.5802395751291681
1818,1237020022.5224932
1843,0.0
1868,192626697.4511835
2,2, 1, 2, 0, 5, 0.00,60.00,Wednesday
9,2741579139.561453
45,481266589.07835856
334,1152703113.3137866
530,4914581380.603388
566,191570802.28531418
689,22409694.78278666
716,0.599935405124102
740,0.024408613366517924
1593,401890696.2144807
1627,450409559.03999999
1703,55220382.33743412
1754,1915901.4090968816
1779,0.5755267917575841
1818,4700600883.535287
1843,0.0
1868,198172898.16829566
2,2, 1, 2, 0, 6, 0.00,60.00,Wednesday
9,2680076227.4487888
45,481266589.07835856
334,1344149967.4088188
530,5147917200.044294
566,191570802.28531418
689,22231929.834927109
716,0.024408613366517924
740,0.024408613366517924
1593,396307295.4367649
1627,450409559.03999999
1703,0.0
1754,0.0
1779,0.0
1818,4934114467.924053
1843,0.0
1868,7942816.4848460429
2,2, 1, 2, 0, 7, 0.00,60.00,Wednesday
9,4657992144.615691
45,962533178.1567171
334,2555368185.5094625
530,4791533196.428817
566,383141604.57062837
689,22501288.110508529
716,0.2720434611393113
740,0.02440861336651792
1593,401890696.21448078
1627,457419741.7137967
1703,80913197.91155622
1754,2400006.119512734
1779,0.24763484777279344
1818,4385890303.74768
1843,0.0
1868,197467138.9901668
2,2, 1, 2, 0, 8, 0.00,60.00,Wednesday
9,4883249158.358441
45,1443799767.2350755
334,2305406226.627573
530,4428937713.883897
566,383141604.57062837
689,129627426.35247284
716,0.6623462212784899
740,0.4149464272308047
1593,397443866.33101436
1627,457419741.7137967
1703,80304789.29578787
1754,2394960.9021636995
1779,0.24739979404768515
1818,3916168682.960796
1843,0.0
1868,196479806.2530312
2,2, 1, 2, 0, 9, 0.00,60.00,Wednesday
9,4494058858.685588
45,1443799767.2350755
334,2305406226.627573
530,4654682154.483069
566,383141604.57062837
689,366470276.6585484
716,1.7308435804754008
740,1.415699575258039
1593,405200129.80602899
1627,0.0
1703,139718518.80734749
1754,3640248.365001369
1779,0.31514400521736166
1818,3905070273.2538926
1843,0.0
1868,196293967.84456203
2,2, 1, 2, 0,10, 0.00,60.00,Wednesday
9,4465646975.832542
45,1443799767.2350755
334,2305406226.627573
530,4160812460.820213
566,383141604.57062837
689,439279787.3280885
716,1.9075051321542383
740,1.6109684821901829
1593,401232443.8141584
1627,0.0
1703,116760533.13773383
1754,3231750.3920441076
1779,0.29653664996405529
1818,3338391068.921496
1843,0.0
1868,195216254.62595759
2,2, 1, 2, 0,11, 0.00,60.00,Wednesday
9,4512371532.091878
45,1443799767.2350755
334,2305406226.627573
530,4337683147.954906
566,383141604.57062837
689,513422361.26085999
716,2.243324536225871
740,1.9038718425883979
1593,408121634.20108947
1627,0.0
1703,155694391.74475373
1754,4033378.934174084
1779,0.33945269363747329
1818,3441119182.123418
1843,0.0
1868,195316133.34921108
2,2, 1, 2, 0,12, 0.00,60.00,Wednesday
9,4489120989.422193
45,1443799767.2350755
334,2305406226.627573
530,3604798996.6070945
566,383141604.57062837
689,524002238.96790209
716,2.3725053138439295
740,2.0015062960544696
1593,404096939.0725489
1627,0.0
1703,138026489.00320987
1754,3726939.479553513
1779,0.3709990177894601
1818,2697655153.068564
1843,0.0
1868,194064628.00423057
2,2, 1, 2, 0,13, 0.00,60.00,Wednesday
9,4537791400.121652
45,1443799767.2350755
334,2305406226.627573
530,3677360554.831071
566,383141604.57062837
689,474946785.45096758
716,2.185334867055794
740,1.7330115490227723
1593,410218786.87316367
1627,0.0
1703,179634368.63741643
1754,4570259.71101042
1779,0.4523233180330216
1818,2819272164.809475
1843,0.0
1868,194161991.03741295
2,2, 1, 2, 0,14, 0.00,60.00,Wednesday
9,4488838292.558063
45,1443799767.2350755
334,2305406226.627573
530,3572491738.2305729
566,383141604.57062837
689,540125468.8099996
716,2.372409788701577
740,2.0015062960544696
1593,404438713.7097169
1627,0.0
1703,137549130.41479988
1754,3725086.071602341
1779,0.37090349264710767
1818,2649224664.849945
1843,0.0
1868,193919368.49929456
2,2, 1, 2, 0,15, 0.00,60.00,Wednesday
9,4558066967.581207
45,1443799767.2350755
334,2305406226.627573
530,3469318337.361411
566,383141604.57062837
689,514083001.70964828
716,2.2917912592644398
740,1.9038718425883979
1593,412729887.65500649
1627,0.0
1703,197350346.94171829
1754,4989242.126262434
1779,0.3879194166760419
1818,2572093731.081135
1843,0.0
1868,193791496.99557153
2,2, 1, 2, 0,16, 0.00,60.00,Wednesday
9,4496873984.766811
45,1443799767.2350755
334,2305406226.627573
530,3238580204.8353855
566,383141604.57062837
689,470466898.33968928
716,2.138570986436414
740,1.8062373891223258
1593,404762786.5425786
1627,0.0
1703,145459006.56177504
1754,3937031.404157599
1779,0.33233359731408798
1818,2384971701.925068
1843,0.0
1868,193509166.39565043
2,2, 1, 2, 0,17, 0.00,60.00,Wednesday
9,4592505746.69977
45,1443799767.2350755
334,2305406226.627573
530,3620724931.89835
566,383141604.57062837
689,427378310.10565426
716,1.9625168990607139
740,1.537742642090629
1593,413904843.10178276
1627,0.0
1703,229587134.1908152
1754,5682943.168107907
1779,0.42477425697008466
1818,2810205017.222067
1843,0.0
1868,194124832.37641565
2,2, 1, 2, 0,18, 0.00,60.00,Wednesday
9,5175158393.378203
45,1443799767.2350755
334,2555368185.5094625
530,3339145979.354051
566,383141604.57062837
689,277627867.6735289
716,1.3012328992879093
740,1.0007531480272348
1593,402656816.49304297
1627,457419741.7137967
1703,118648835.28366962
1754,3305975.846164562
1779,0.3004797512606745
1818,2678376507.109894
1843,0.0
1868,193959071.29699294
2,2, 1, 2, 0,19, 0.00,60.00,Wednesday
9,3022097148.184025
45,962533178.1567171
334,1152703113.3137866
530,2593250952.3781964
566,191570802.28531418
689,136969508.87837113
716,0.48145354656832398
740,0.43935504059732258
1593,396307295.43676486
1627,457419741.7137967
1703,17977208.21129486
1754,508957.7440573026
1779,0.04209850597100142
1818,2264710641.214511
1843,0.0
1868,34647653.607606668
2,2, 1, 2, 0,20, 0.00,60.00,Wednesday
9,3223957719.913694
45,962533178.1567171
334,1344149967.4088188
530,3222872664.026742
566,191570802.28531418
689,125212909.19551835
716,0.49135519718239548
740,0.4393550405973226
1593,397703145.6311938
1627,457419741.7137967
1703,10278879.985033306
1754,414701.7621791089
1779,0.052000156585072867
1818,2906088952.5459096
1843,0.0
1868,51458105.25595421
2,2, 1, 2, 0,21, 0.00,60.00,Wednesday
9,2031520487.8751963
45,481266589.07835856
334,691621867.9882716
530,3807318034.250455
566,114942481.37118849
689,125311455.4952094
716,0.4393550405973226
740,0.4393550405973226
1593,396307295.4367649
1627,457419741.7137967
1703,0.0
1754,0.0
1779,0.0
1818,3567064097.384057
1843,0.0
1868,4904993.6580047239
2,2, 1, 2, 0,22, 0.00,60.00,Wednesday
9,2381197889.8570415
45,481266589.07835856
334,795296064.9030184
530,4424691699.503077
566,114942481.37118849
689,88138027.17443754
716,0.4906430864009885
740,0.2440861336651792
1593,401890696.2144807
1627,457419741.7137967
1703,46975670.55618195
1754,1648668.099427679
1779,0.2465569527358093
1818,4221611190.957451
1843,0.0
1868,196700459.29177807
2,2, 1, 2, 0,23, 0.00,60.00,Wednesday
9,2202375971.008043
45,160422196.35945288
334,691621867.9882716
530,1578954987.133455
566,114942481.37118849
689,22465279.086172936
716,0.8232571139946643
740,0.024408613366517924
1593,166239186.05741514
1627,457419741.7137967
1703,548103062.0413627
1754,11149367.184412443
1779,0.7988485006281464
1818,1441547226.6760936
1843,0.0
1868,167420549.6633313
2,2, 1, 2, 0,24, 0.00,60.00,Wednesday
9,1562034855.6890238
45,160422196.35945288
334,691621867.9882716
530,543850614.2168973
566,114942481.37118849
689,22416383.20902914
716,0.3154209361870748
740,0.024408613366517927
1593,5583400.777715866
1627,457419741.7137967
1703,53800672.632871758
1754,1977389.5616221312
1779,0.29101232282055686
1818,406491749.63667967
1843,0.0
1868,191209586.65529273
2,3, 1, 3, 0, 1, 0.00,60.00,Thursday
9,2748357529.8132946
45,160422196.35945288
334,691621867.9882716
530,3464401851.7827675
566,114942481.37118849
689,22432567.14085517
716,1.3263141004277457
740,0.024408613366517924
1593,291666256.61711648
1627,450409559.03999999
1703,939665021.3186876
1754,18110645.1307042
1779,1.3019054870612277
1818,3327026803.270724
1843,0.0
1868,196461983.35906185
2,3, 1, 3, 0, 2, 0.00,60.00,Thursday
9,1554214681.0376499
45,160422196.35945288
334,691621867.9882716
530,553413049.3849323
566,114942481.37118849
689,22342949.978741487
716,0.3531368394877967
740,0.024408613366517924
1593,5583400.777715867
1627,450409559.03999999
1703,52849669.093956898
1754,2038068.7059825476
1779,0.32872822612127886
1818,416127618.03500226
1843,0.0
1868,191289919.07227016
2,3, 1, 3, 0, 3, 0.00,60.00,Thursday
9,2420607265.4813778
45,160422196.35945288
334,691621867.9882716
530,2225963252.5446288
566,114942481.37118849
689,22239113.796830037
716,1.0009171371885917
740,0.02440861336651792
1593,210843436.752587
1627,450409559.03999999
1703,699542571.3604434
1754,13822021.336521568
1779,0.9765085238220737
1818,2088781657.37661
1843,0.0
1868,193945612.6441016
2,3, 1, 3, 0, 4, 0.00,60.00,Thursday
9,2044422423.3574129
45,160422196.35945288
334,795296064.9030184
530,1642334888.6660562
566,114942481.37118849
689,22460778.23551577
716,0.6390380066968854
740,0.02440861336651792
1593,98162267.16799507
1627,450409559.03999999
1703,339895868.4922528
1754,7349876.078112537
1779,0.6146293933303675
1818,1504931629.059352
1843,0.0
1868,192886591.31658114
2,3, 1, 3, 0, 5, 0.00,60.00,Thursday
9,2490653482.1906478
45,481266589.07835856
334,1152703113.3137866
530,5927921611.251297
566,191570802.28531418
689,22295543.085413297
716,0.024408613366517924
740,0.024408613366517924
1593,396307295.43676486
1627,450409559.03999999
1703,0.0
1754,0.0
1779,0.0
1818,5714055265.880569
1843,0.0
1868,9966925.321737048
2,3, 1, 3, 0, 6, 0.00,60.00,Thursday
9,2938819020.126086
45,481266589.07835856
334,1344149967.4088188
530,6797304856.948533
566,191570802.28531418
689,22462991.64405382
716,0.3208218167635477
740,0.024408613366517924
1593,401890696.21448078
1627,450409559.03999999
1703,56730165.56595761
1754,1839012.155674732
1779,0.2964132033970298
1818,6583271063.019165
1843,0.0
1868,202533030.66279546
2,3, 1, 3, 0, 7, 0.00,60.00,Thursday
9,4380371940.477984
45,962533178.1567171
334,2555368185.5094625
530,5605068124.937281
566,383141604.57062837
689,22353816.701756296
716,0.024408613366517924
740,0.024408613366517924
1593,396307295.4367649
1627,457419741.7137967
1703,0.0
1754,0.0
1779,0.0
1818,5199572703.664896
1843,0.0
1868,8743539.661244128
2,3, 1, 3, 0, 8, 0.00,60.00,Thursday
9,4927363408.073514
45,1443799767.2350755
334,2305406226.627573
530,6209251033.742974
566,383141604.57062837
689,125509278.54706879
716,0.7843092575991053
740,0.41494642723080479
1593,407278461.2932374
1627,457419741.7137967
1703,110234435.83659178
1754,2732413.3666734157
1779,0.36936283036830055
1818,5700600150.6252779
1843,0.0
1868,200492362.00056834
2,3, 1, 3, 0, 9, 0.00,60.00,Thursday
9,4154643279.5400245
45,1443799767.2350755
334,2305406226.627573
530,5122383224.693071
566,383141604.57062837
689,367469569.35813978
716,1.415699575258039
740,1.415699575258039
1593,398740545.3382178
1627,0.0
1703,0.0
1754,0.0
1779,0.0
1818,4371772050.764303
1843,0.0
1868,6696740.339157363
2,3, 1, 3, 0,10, 0.00,60.00,Thursday
9,4429153097.115115
45,1443799767.2350755
334,2305406226.627573
530,6319717965.061603
566,383141604.57062837
689,430601035.11878868
716,1.8731601452676006
740,1.6109684821901827
1593,404957087.0025611
1627,0.0
1703,73428920.2065919
1754,2015327.120096588
1779,0.262191663077418
1818,5505975325.372186
1843,0.0
1868,199545768.9232171
2,3, 1, 3, 0,11, 0.00,60.00,Thursday
9,4156940047.382452
45,1443799767.2350755
334,2305406226.627573
530,5601189411.1149239
566,383141604.57062837
689,513703595.4945111
716,1.9038718425883979
740,1.9038718425883979
1593,400374756.3724544
1627,0.0
1703,0.0
1754,0.0
1779,0.0
1818,4704344211.049784
1843,0.0
1868,7359297.147348439
2,3, 1, 3, 0,12, 0.00,60.00,Thursday
9,4431291056.396071
45,1443799767.2350755
334,2305406226.627573
530,5660279954.47192
566,383141604.57062837
689,548409812.8920163
716,2.336346178268327
740,2.001506296054469
1593,407288842.11361
1627,0.0
1703,74912376.05861911
1754,2042657.084281492
1779,0.3348398822138581
1818,4728728537.009275
1843,0.0
1868,197841187.2769126
2,3, 1, 3, 0,13, 0.00,60.00,Thursday
9,4157652110.492119
45,1443799767.2350755
334,2305406226.627573
530,5291990356.175865
566,383141604.57062837
689,466513503.7520859
716,1.7330115490227725
740,1.7330115490227725
1593,401752056.94136497
1627,0.0
1703,0.0
1754,0.0
1779,0.0
1818,4442335247.853151
1843,0.0
1868,6694059.688104563
2,3, 1, 3, 0,14, 0.00,60.00,Thursday
9,4432504543.833388
45,1443799767.2350755
334,2305406226.627573
530,5845827265.122299
566,383141604.57062837
689,523984743.67534998
716,2.3794050475850274
740,2.0015062960544696
1593,407128615.3819081
1627,0.0
1703,75900330.90623242
1754,2025735.759771998
1779,0.37789875153055776
1818,4938700916.876321
1843,0.0
1868,198243867.92282734
2,3, 1, 3, 0,15, 0.00,60.00,Thursday
9,4158303672.6797945
45,1443799767.2350755
334,2305406226.627573
530,5382950233.791262
566,383141604.57062837
689,514384793.043101
716,1.9038718425883979
740,1.9038718425883979
1593,402320377.515452
1627,0.0
1703,0.0
1754,0.0
1779,0.0
1818,4485423836.177532
1843,0.0
1868,6777301.3016932769
2,3, 1, 3, 0,16, 0.00,60.00,Thursday
9,4432544677.216845
45,1443799767.2350755
334,2305406226.627573
530,5655593748.806665
566,383141604.57062837
689,494201468.77722689
716,2.200376513411415
740,1.8062373891223256
1593,406621515.792136
1627,0.0
1703,76797470.1325354
1754,2018114.053521322
1779,0.39413912428908928
1818,4778250675.45881
1843,0.0
1868,197901583.37600295
2,3, 1, 3, 0,17, 0.00,60.00,Thursday
9,4156657374.362566
45,1443799767.2350755
334,2305406226.627573
530,5443382883.451552
566,383141604.57062837
689,402739046.0498066
716,1.537742642090629
740,1.537742642090629
1593,400292563.7687148
1627,0.0
1703,0.0
1754,0.0
1779,0.0
1818,4657502232.831118
1843,0.0
1868,7158816.731202012
2,3, 1, 3, 0,18, 0.00,60.00,Thursday
9,5139355848.524396
45,1443799767.2350755
334,2555368185.5094625
530,5845100757.883693
566,383141604.57062837
689,279592776.9913284
716,1.346662131808176
740,1.0007531480272348
1593,405256619.65487888
1627,457419741.7137967
1703,76686985.67427354
1754,1979482.4938686933
1779,0.3459089837809412
1818,5182366376.321736
1843,0.0
1868,198845066.2430406
2,3, 1, 3, 0,19, 0.00,60.00,Thursday
9,2976668420.319502
45,962533178.1567171
334,1152703113.3137866
530,4952269674.011677
566,191570802.28531418
689,132035750.86214189
716,0.43935504059732247
740,0.43935504059732247
1593,396307295.43676486
1627,457419741.7137967
1703,0.0
1754,0.0
1779,0.0
1818,4628663120.864221
1843,0.0
1868,7705091.698435678
2,3, 1, 3, 0,20, 0.00,60.00,Thursday
9,3430448123.697725
45,962533178.1567171
334,1344149967.4088188
530,5245870473.657686
566,191570802.28531418
689,131257857.05853717
716,0.7400052128356678
740,0.43935504059732258
1593,401890696.2144807
1627,457419741.7137967
1703,63718412.68791558
1754,1733252.9451450126
1779,0.3006501722383453
1818,4923041814.313835
1843,0.0
1868,199002874.57085077
2,3, 1, 3, 0,21, 0.00,60.00,Thursday
9,2036183056.3864477
45,481266589.07835856
334,691621867.9882716
530,5750024204.970339
566,114942481.37118849
689,131252151.84675378
716,0.43935504059732258
740,0.43935504059732258
1593,396307295.43676486
1627,457419741.7137967
1703,0.0
1754,0.0
1779,0.0
1818,5503829571.752397
1843,0.0
1868,9567562.169256147
2,3, 1, 3, 0,22, 0.00,60.00,Thursday
9,2399064439.052349
45,481266589.07835856
334,795296064.9030184
530,6396984308.706824
566,114942481.37118849
689,97019820.7583397
716,0.587811560201475
740,0.2440861336651792
1593,401890696.21448078
1627,457419741.7137967
1703,59806712.55167164
1754,1617457.9325308472
1779,0.34372542653629575
1818,6185022006.577296
1843,0.0
1868,201767176.65849258
2,3, 1, 3, 0,23, 0.00,60.00,Thursday
9,2239248280.8043506
45,160422196.35945288
334,691621867.9882716
530,1620049635.401336
566,114942481.37118849
689,22468769.46193356
716,0.7829517557058643
740,0.024408613366517924
1593,166110177.8520466
1627,457419741.7137967
1703,574024623.270696
1754,10228909.72880656
1779,0.7585431423393464
1818,1482638384.568214
1843,0.0
1868,179420763.89128036
2,3, 1, 3, 0,24, 0.00,60.00,Thursday
9,1815274343.8822778
45,160422196.35945288
334,691621867.9882716
530,1228492202.5399502
566,114942481.37118849
689,22449234.339125076
716,0.5344052365195708
740,0.02440861336651792
1593,67302645.03790201
1627,457419741.7137967
1703,241421657.29136933
1754,4875244.942208905
1779,0.5099966231530529
1818,1091100486.8296366
1843,0.0
1868,192210990.54927657
2,4, 1, 4, 0, 1, 0.00,60.00,Friday
9,2413683511.8943917
45,160422196.35945288
334,691621867.9882716
530,2883223763.865354
566,114942481.37118849
689,22259296.03998363
716,0.913640043911906
740,0.024408613366517924
1593,210843436.75258703
1627,450409559.03999999
1703,692446275.0893465
1754,12399237.689186858
1779,0.8892314305453881
1818,2746021986.454182
1843,0.0
1868,195540938.97554723
2,4, 1, 4, 0, 2, 0.00,60.00,Friday
9,2014496944.4023514
45,160422196.35945288
334,691621867.9882716
530,1773290615.2517262
566,114942481.37118849
689,22340442.285275897
716,0.6383875515720479
740,0.024408613366517924
1593,118735348.5880571
1627,450409559.03999999
1703,392515174.6285515
1754,7518448.806337017
1779,0.61397893820553
1818,1636007691.5952619
1843,0.0
1868,193274348.99168165
2,4, 1, 4, 0, 3, 0.00,60.00,Friday
9,2405439552.196038
45,160422196.35945288
334,691621867.9882716
530,2509808522.094213
566,114942481.37118849
689,22258313.140682747
716,0.7785581212258541
740,0.024408613366517924
1593,210843436.752587
1627,450409559.03999999
1703,685453301.1961756
1754,12007848.287374456
1779,0.7541495078593362
1818,2372607727.5823419
1843,0.0
1868,194681342.57217653
2,4, 1, 4, 0, 4, 0.00,60.00,Friday
9,2128249235.6546126
45,160422196.35945288
334,795296064.9030184
530,1950981397.030417
566,114942481.37118849
689,22480811.368803879
716,0.5227932356773499
740,0.02440861336651792
1593,118735348.5880571
1627,450409559.03999999
1703,402403381.3940977
1754,7435875.944994185
1779,0.49838462231083199
1818,1813558104.2904247
1843,0.0
1868,193546809.42499266
2,4, 1, 4, 0, 5, 0.00,60.00,Friday
9,2497032650.683841