Program Version,EnergyPlus, Version 9.1.0-fafb9d5652, YMD=2020.03.26 13:28
1,5,Environment Title[],Latitude[deg],Longitude[deg],Time Zone[],Elevation[m]
2,8,Day of Simulation[],Month[],Day of Month[],DST Indicator[1=yes 0=no],Hour[],StartMinute[],EndMinute[],DayType
3,5,Cumulative Day of Simulation[],Month[],Day of Month[],DST Indicator[1=yes 0=no],DayType  ! When Daily Report Variables Requested
4,2,Cumulative Days of Simulation[],Month[]  ! When Monthly Report Variables Requested
5,1,Cumulative Days of Simulation[] ! When Run Period Report Variables Requested
6,1,Calendar Year of Simulation[] ! When Annual Report Variables Requested
7,9,Environment,Site Outdoor Air Drybulb Temperature [C] !Monthly [Value,Min,Day,Hour,Minute,Max,Day,Hour,Minute]
8,1,Environment,Site Outdoor Air Wetbulb Temperature [C] !TimeStep
545,1,BUILDING STORY 1 THERMALZONE,Zone Air Temperature [C] !Hourly
546,7,BUILDING STORY 1 THERMALZONE,Zone Air Relative Humidity [%] !Daily [Value,Min,Hour,Minute,Max,Hour,Minute]
11,1,Electricity:Facility [J] !TimeStep
123,1,Gas:Facility [J] !TimeStep
End of Data Dictionary
1,BUFFALO NIAGARA INTL AP ANN CLG .4% CONDNS DB=>MWB 1,  42.93, -78.73,  -5.00, 215.00
2,1, 7,21, 0, 1, 0.00,60.00,SummerDesignDay
8,19.36840579326866
11,265013200.43136195
123,326874996.1752113
2,1, 7,21, 0, 1, 0.00,60.00,SummerDesignDay
545,29.197959372665538
2,1, 7,21, 0, 2, 0.00,60.00,SummerDesignDay
8,19.25226217922265
11,258347490.2974746
123,189318139.12594483
2,1, 7,21, 0, 2, 0.00,60.00,SummerDesignDay
545,29.80278029831479
2,1, 7,21, 0, 3, 0.00,60.00,SummerDesignDay
8,19.164819553782637
11,259616050.95987834
123,183525916.18683885
2,1, 7,21, 0, 3, 0.00,60.00,SummerDesignDay
545,29.94213017423688
2,1, 7,21, 0, 4, 0.00,60.00,SummerDesignDay
8,19.0770792448193
11,262932626.0314873
123,183525916.18683885
2,1, 7,21, 0, 4, 0.00,60.00,SummerDesignDay
545,29.95643349795225
2,1, 7,21, 0, 5, 0.00,60.00,SummerDesignDay
8,19.018427637799467
11,263656611.00464709
123,183525916.18683885
2,1, 7,21, 0, 5, 0.00,60.00,SummerDesignDay
545,29.96472129129812
2,1, 7,21, 0, 6, 0.00,60.00,SummerDesignDay
8,19.0770792448193
11,322420195.68191346
123,183525916.18683885
2,1, 7,21, 0, 6, 0.00,60.00,SummerDesignDay
545,26.385804022730669
2,1, 7,21, 0, 7, 0.00,60.00,SummerDesignDay
8,19.281346189070228
11,386155637.05130168
123,332299440.5994047
2,1, 7,21, 0, 7, 0.00,60.00,SummerDesignDay
545,24.26306517775053
2,1, 7,21, 0, 8, 0.00,60.00,SummerDesignDay
8,19.770887505670989
11,405852388.3467357
123,364786821.223922
2,1, 7,21, 0, 8, 0.00,60.00,SummerDesignDay
545,23.97894827709859
2,1, 7,21, 0, 9, 0.00,60.00,SummerDesignDay
8,20.30732185289352
11,412093914.69448217
123,363825729.8602612
2,1, 7,21, 0, 9, 0.00,60.00,SummerDesignDay
545,23.97590784035194
2,1, 7,21, 0,10, 0.00,60.00,SummerDesignDay
8,20.778037156782458
11,415821148.8923081
123,353415276.02247467
2,1, 7,21, 0,10, 0.00,60.00,SummerDesignDay
545,23.973908460568145
2,1, 7,21, 0,11, 0.00,60.00,SummerDesignDay
8,21.186337137460165
11,432939774.96050807
123,352091138.0640677
2,1, 7,21, 0,11, 0.00,60.00,SummerDesignDay
545,23.97257403871615
2,1, 7,21, 0,12, 0.00,60.00,SummerDesignDay
8,21.45495938709981
11,439699215.65460136
123,353422267.45569708
2,1, 7,21, 0,12, 0.00,60.00,SummerDesignDay
545,23.972399785455708
2,1, 7,21, 0,13, 0.00,60.00,SummerDesignDay
8,21.667839996742449
11,442325539.12559255
123,352098532.95649436
2,1, 7,21, 0,13, 0.00,60.00,SummerDesignDay
545,23.97237894624772
2,1, 7,21, 0,14, 0.00,60.00,SummerDesignDay
8,21.799990419629109
11,445285681.0434212
123,341899358.5454271
2,1, 7,21, 0,14, 0.00,60.00,SummerDesignDay
545,23.972134702584975
2,1, 7,21, 0,15, 0.00,60.00,SummerDesignDay
8,21.799990419629109
11,444633372.92775049
123,340560611.50776997
2,1, 7,21, 0,15, 0.00,60.00,SummerDesignDay
545,23.971847067490115
2,1, 7,21, 0,16, 0.00,60.00,SummerDesignDay
8,21.641326796728476
11,429997851.6239532
123,344483827.08454909
2,1, 7,21, 0,16, 0.00,60.00,SummerDesignDay
545,23.971872948847506
2,1, 7,21, 0,17, 0.00,60.00,SummerDesignDay
8,21.42822317147698
11,423875674.7719389
123,344457739.8997997
2,1, 7,21, 0,17, 0.00,60.00,SummerDesignDay
545,23.97193022401208
2,1, 7,21, 0,18, 0.00,60.00,SummerDesignDay
8,21.15931786227956
11,433138630.4460674
123,343948133.0437216
2,1, 7,21, 0,18, 0.00,60.00,SummerDesignDay
545,23.971947252835329
2,1, 7,21, 0,19, 0.00,60.00,SummerDesignDay
8,20.750583661392644
11,427419791.0055982
123,363469238.9095576
2,1, 7,21, 0,19, 0.00,60.00,SummerDesignDay
545,23.972408998004494
2,1, 7,21, 0,20, 0.00,60.00,SummerDesignDay
8,20.446661088459409
11,414791008.0025027
123,372546563.3502915
2,1, 7,21, 0,20, 0.00,60.00,SummerDesignDay
545,23.973314984302747
2,1, 7,21, 0,21, 0.00,60.00,SummerDesignDay
8,20.19530361990708
11,420698305.36054739
123,354682727.63968548
2,1, 7,21, 0,21, 0.00,60.00,SummerDesignDay
545,23.97393996487487
2,1, 7,21, 0,22, 0.00,60.00,SummerDesignDay
8,19.941485234887624
11,417293442.3251933
123,363817704.0906259
2,1, 7,21, 0,22, 0.00,60.00,SummerDesignDay
545,23.9742727186634
2,1, 7,21, 0,23, 0.00,60.00,SummerDesignDay
8,19.7423381019073
11,406338840.5951443
123,353405338.2952552
2,1, 7,21, 0,23, 0.00,60.00,SummerDesignDay
545,23.974499776654555
2,1, 7,21, 0,24, 0.00,60.00,SummerDesignDay
8,19.54165603023991
11,390746863.10390076
123,338348451.39153715
2,1, 7,21, 0,24, 0.00,60.00,SummerDesignDay
545,23.97469015115406
3,1, 7,21, 0,SummerDesignDay
546,60.62630095709036,55.53813542141488, 1,10,72.3627206441965, 6,10
4,1, 7
7,25.312875000000003,21.0,21, 5,60,30.3,21,14,60
1,BUFFALO NIAGARA INTL AP ANN CLG .4% CONDNS WB=>MDB 1,  42.93, -78.73,  -5.00, 215.00
2,1, 7,21, 0, 1, 0.00,60.00,SummerDesignDay
8,19.615996954992807
11,261614841.77635957
123,326874996.1752113
2,1, 7,21, 0, 1, 0.00,60.00,SummerDesignDay
545,28.644889848369329
2,1, 7,21, 0, 2, 0.00,60.00,SummerDesignDay
8,19.243988037109376
11,248425287.55661387
123,195658373.82964397
2,1, 7,21, 0, 2, 0.00,60.00,SummerDesignDay
545,29.555825736117425
2,1, 7,21, 0, 3, 0.00,60.00,SummerDesignDay
8,18.96499632356402
11,245698289.13477034
123,183525916.18683885
2,1, 7,21, 0, 3, 0.00,60.00,SummerDesignDay
545,29.782254950168207
2,1, 7,21, 0, 4, 0.00,60.00,SummerDesignDay
8,18.685989379882814
11,245698328.72173665
123,183525916.18683885
2,1, 7,21, 0, 4, 0.00,60.00,SummerDesignDay
545,29.898169593316199
2,1, 7,21, 0, 5, 0.00,60.00,SummerDesignDay
8,18.49999810986028
11,245698367.9806768
123,183525916.18683885
2,1, 7,21, 0, 5, 0.00,60.00,SummerDesignDay
545,29.964342680755693
2,1, 7,21, 0, 6, 0.00,60.00,SummerDesignDay
8,18.685989379882814
11,308705906.80215176
123,183525916.18683885
2,1, 7,21, 0, 6, 0.00,60.00,SummerDesignDay
545,26.390024625240107
2,1, 7,21, 0, 7, 0.00,60.00,SummerDesignDay
8,19.336990356445314
11,375375209.32712498
123,332299527.3171958
2,1, 7,21, 0, 7, 0.00,60.00,SummerDesignDay
545,24.278326646259648
2,1, 7,21, 0, 8, 0.00,60.00,SummerDesignDay
8,20.917992548817627
11,399507734.15198817
123,364786821.39864096
2,1, 7,21, 0, 8, 0.00,60.00,SummerDesignDay
545,23.979425275412618
2,1, 7,21, 0, 9, 0.00,60.00,SummerDesignDay
8,22.420023807696297
11,411750385.0346881
123,363825730.05961027
2,1, 7,21, 0, 9, 0.00,60.00,SummerDesignDay
545,23.97641946001185
2,1, 7,21, 0,10, 0.00,60.00,SummerDesignDay
8,22.854695006230427
11,416986184.9882199
123,353415276.2693025
2,1, 7,21, 0,10, 0.00,60.00,SummerDesignDay
545,23.974204352566468
2,1, 7,21, 0,11, 0.00,60.00,SummerDesignDay
8,23.232104587122938
11,434517891.9878463
123,352091138.32515469
2,1, 7,21, 0,11, 0.00,60.00,SummerDesignDay
545,23.97255408029994
2,1, 7,21, 0,12, 0.00,60.00,SummerDesignDay
8,23.480593542408348
11,440932579.47197559
123,353422267.6996695
2,1, 7,21, 0,12, 0.00,60.00,SummerDesignDay
545,23.972309251184304
2,1, 7,21, 0,13, 0.00,60.00,SummerDesignDay
8,23.677626430315248
11,443555120.9539872
123,352098533.2145308
2,1, 7,21, 0,13, 0.00,60.00,SummerDesignDay
545,23.972324144626009
2,1, 7,21, 0,14, 0.00,60.00,SummerDesignDay
8,23.799986320868798
11,446705093.2776453
123,341899358.84178379
2,1, 7,21, 0,14, 0.00,60.00,SummerDesignDay
545,23.972065949637498
2,1, 7,21, 0,15, 0.00,60.00,SummerDesignDay
8,23.799986320868798
11,446063397.1906601
123,340560497.70766857
2,1, 7,21, 0,15, 0.00,60.00,SummerDesignDay
545,23.971739172027378
2,1, 7,21, 0,16, 0.00,60.00,SummerDesignDay
8,23.653081835774505
11,431145268.0065887
123,344483827.76284936
2,1, 7,21, 0,16, 0.00,60.00,SummerDesignDay
545,23.97173470915327
2,1, 7,21, 0,17, 0.00,60.00,SummerDesignDay
8,23.4558543827806
11,424989096.0134
123,344457740.5859711
2,1, 7,21, 0,17, 0.00,60.00,SummerDesignDay
545,23.97181575936606
2,1, 7,21, 0,18, 0.00,60.00,SummerDesignDay
8,23.207119318496696
11,434342855.627484
123,343948133.51306268
2,1, 7,21, 0,18, 0.00,60.00,SummerDesignDay
545,23.97182956019571
2,1, 7,21, 0,19, 0.00,60.00,SummerDesignDay
8,22.82933132300861
11,428246670.2005531
123,363469335.0802958
2,1, 7,21, 0,19, 0.00,60.00,SummerDesignDay
545,23.97224438695157
2,1, 7,21, 0,20, 0.00,60.00,SummerDesignDay
8,22.548645905899027
11,415142522.2419017
123,372546563.44410476
2,1, 7,21, 0,20, 0.00,60.00,SummerDesignDay
545,23.973158910696847
2,1, 7,21, 0,21, 0.00,60.00,SummerDesignDay
8,22.312987690310977
11,421253932.7671778
123,354682727.7622656
2,1, 7,21, 0,21, 0.00,60.00,SummerDesignDay
545,23.9738435068129
2,1, 7,21, 0,22, 0.00,60.00,SummerDesignDay
8,21.475995587251039
11,415058459.5067682
123,363817704.2033904
2,1, 7,21, 0,22, 0.00,60.00,SummerDesignDay
545,23.974262589297877
2,1, 7,21, 0,23, 0.00,60.00,SummerDesignDay
8,20.824995071347869
11,401536149.24609199
123,353405338.43488976
2,1, 7,21, 0,23, 0.00,60.00,SummerDesignDay
545,23.97445092109002
2,1, 7,21, 0,24, 0.00,60.00,SummerDesignDay
8,20.173995840857065
11,383386818.88364168
123,338348451.57854059
2,1, 7,21, 0,24, 0.00,60.00,SummerDesignDay
545,23.974712529017429
3,1, 7,21, 0,SummerDesignDay
546,64.49506942183165,58.67057549607127, 8,60,77.52725472987776, 6,10
4,1, 7
7,22.812875000000003,18.5,21, 5,60,27.8,21,14,60
1,BUFFALO NIAGARA INTL AP ANN HTG 99.6% CONDNS DB 1,  42.93, -78.73,  -5.00, 215.00
2,1, 1,21, 0, 1, 0.00,60.00,WinterDesignDay
8,-16.3
11,56078941.26813194
123,796612186.074829
2,1, 1,21, 0, 1, 0.00,60.00,WinterDesignDay
545,20.999999999999984
2,1, 1,21, 0, 2, 0.00,60.00,WinterDesignDay
8,-16.3
11,44993903.60756186
123,619459039.5473503
2,1, 1,21, 0, 2, 0.00,60.00,WinterDesignDay
545,21.000000000000026
2,1, 1,21, 0, 3, 0.00,60.00,WinterDesignDay
8,-16.3
11,44993943.47465741
123,614828622.254003
2,1, 1,21, 0, 3, 0.00,60.00,WinterDesignDay
545,20.99999999999998
2,1, 1,21, 0, 4, 0.00,60.00,WinterDesignDay
8,-16.3
11,44993983.01075789
123,614828622.3870187
2,1, 1,21, 0, 4, 0.00,60.00,WinterDesignDay
545,21.000000000000026
2,1, 1,21, 0, 5, 0.00,60.00,WinterDesignDay
8,-16.3
11,44994022.21937044
123,614828622.5051212
2,1, 1,21, 0, 5, 0.00,60.00,WinterDesignDay
545,21.00000000000001
2,1, 1,21, 0, 6, 0.00,60.00,WinterDesignDay
8,-16.3
11,45180706.652134019
123,614828622.6099885
2,1, 1,21, 0, 6, 0.00,60.00,WinterDesignDay
545,20.999999999999969
2,1, 1,21, 0, 7, 0.00,60.00,WinterDesignDay
8,-16.3
11,52456565.709557648
123,797857666.6465174
2,1, 1,21, 0, 7, 0.00,60.00,WinterDesignDay
545,20.999999999999984
2,1, 1,21, 0, 8, 0.00,60.00,WinterDesignDay
8,-16.3
11,52456605.550506059
123,797860877.982827
2,1, 1,21, 0, 8, 0.00,60.00,WinterDesignDay
545,20.99999999999999
2,1, 1,21, 0, 9, 0.00,60.00,WinterDesignDay
8,-16.3
11,32791851.265526274
123,796806298.9459498
2,1, 1,21, 0, 9, 0.00,60.00,WinterDesignDay
545,20.999999999999998
2,1, 1,21, 0,10, 0.00,60.00,WinterDesignDay
8,-16.3
11,59894691.35163711
123,835006555.5198358
2,1, 1,21, 0,10, 0.00,60.00,WinterDesignDay
545,21.00000000000004
2,1, 1,21, 0,11, 0.00,60.00,WinterDesignDay
8,-16.3
11,57449015.77947461
123,828305589.1248852
2,1, 1,21, 0,11, 0.00,60.00,WinterDesignDay
545,21.000000000000019
2,1, 1,21, 0,12, 0.00,60.00,WinterDesignDay
8,-16.3
11,60276066.69777403
123,835006555.6290972
2,1, 1,21, 0,12, 0.00,60.00,WinterDesignDay
545,21.000000000000008
2,1, 1,21, 0,13, 0.00,60.00,WinterDesignDay
8,-16.3
11,60260575.93483477
123,835006555.6747265
2,1, 1,21, 0,13, 0.00,60.00,WinterDesignDay
545,20.999999999999969
2,1, 1,21, 0,14, 0.00,60.00,WinterDesignDay
8,-16.3
11,57442081.50841901
123,828304908.5135214
2,1, 1,21, 0,14, 0.00,60.00,WinterDesignDay
545,20.999999999999984
2,1, 1,21, 0,15, 0.00,60.00,WinterDesignDay
8,-16.3
11,54786989.73403543
123,822571475.9054604
2,1, 1,21, 0,15, 0.00,60.00,WinterDesignDay
545,20.99999999999999
2,1, 1,21, 0,16, 0.00,60.00,WinterDesignDay
8,-16.3
11,54899574.500212918
123,826804009.5638642
2,1, 1,21, 0,16, 0.00,60.00,WinterDesignDay
545,21.000000000000037
2,1, 1,21, 0,17, 0.00,60.00,WinterDesignDay
8,-16.3
11,52097237.362266819
123,813823572.5561996
2,1, 1,21, 0,17, 0.00,60.00,WinterDesignDay
545,21.00000000000002
2,1, 1,21, 0,18, 0.00,60.00,WinterDesignDay
8,-16.3
11,74551415.94642543
123,828125981.9688652
2,1, 1,21, 0,18, 0.00,60.00,WinterDesignDay
545,21.000000000000015
2,1, 1,21, 0,19, 0.00,60.00,WinterDesignDay
8,-16.3
11,83233096.91829963
123,835006555.8590617
2,1, 1,21, 0,19, 0.00,60.00,WinterDesignDay
545,20.99999999999997
2,1, 1,21, 0,20, 0.00,60.00,WinterDesignDay
8,-16.3
11,84662604.01720631
123,835006555.8789188
2,1, 1,21, 0,20, 0.00,60.00,WinterDesignDay
545,21.000000000000026
2,1, 1,21, 0,21, 0.00,60.00,WinterDesignDay
8,-16.3
11,80723661.70885147
123,835006555.8965446
2,1, 1,21, 0,21, 0.00,60.00,WinterDesignDay
545,21.000000000000008
2,1, 1,21, 0,22, 0.00,60.00,WinterDesignDay
8,-16.3
11,83875830.68900976
123,835006555.9121976
2,1, 1,21, 0,22, 0.00,60.00,WinterDesignDay
545,21.000000000000044
2,1, 1,21, 0,23, 0.00,60.00,WinterDesignDay
8,-16.3
11,74669236.7932712
123,828125912.3061577
2,1, 1,21, 0,23, 0.00,60.00,WinterDesignDay
545,20.999999999999948
2,1, 1,21, 0,24, 0.00,60.00,WinterDesignDay
8,-16.3
11,69050038.18814284
123,813239953.5294477
2,1, 1,21, 0,24, 0.00,60.00,WinterDesignDay
545,20.99999999999997
3,1, 1,21, 0,WinterDesignDay
546,5.890092407877586,5.890092235236941, 2,60,5.890092580518235, 1,60
4,1, 1
7,-16.300000000000009,-16.3,21, 1,60,-16.3,21, 1,60
End of Data
 Number of Records Written=         294
