Program Version,EnergyPlus, Version 9.1.0-fafb9d5652, YMD=2020.03.26 13:24
1,5,Environment Title[],Latitude[deg],Longitude[deg],Time Zone[],Elevation[m]
2,8,Day of Simulation[],Month[],Day of Month[],DST Indicator[1=yes 0=no],Hour[],StartMinute[],EndMinute[],DayType
3,5,Cumulative Day of Simulation[],Month[],Day of Month[],DST Indicator[1=yes 0=no],DayType  ! When Daily Report Variables Requested
4,2,Cumulative Days of Simulation[],Month[]  ! When Monthly Report Variables Requested
5,1,Cumulative Days of Simulation[] ! When Run Period Report Variables Requested
6,1,Calendar Year of Simulation[] ! When Annual Report Variables Requested
7,9,Environment,Site Outdoor Air Drybulb Temperature [C] !Monthly [Value,Min,Day,Hour,Minute,Max,Day,Hour,Minute]
8,1,Environment,Site Outdoor Air Wetbulb Temperature [C] !TimeStep
692,1,BUILDING STORY 1 THERMALZONE,Zone Air Temperature [C] !Hourly
693,7,BUILDING STORY 1 THERMALZONE,Zone Air Relative Humidity [%] !Daily [Value,Min,Hour,Minute,Max,Hour,Minute]
732,1,BUILDING STORY 2 THERMALZONE,Zone Air Temperature [C] !Hourly
733,7,BUILDING STORY 2 THERMALZONE,Zone Air Relative Humidity [%] !Daily [Value,Min,Hour,Minute,Max,Hour,Minute]
772,1,BUILDING STORY 3 THERMALZONE,Zone Air Temperature [C] !Hourly
773,7,BUILDING STORY 3 THERMALZONE,Zone Air Relative Humidity [%] !Daily [Value,Min,Hour,Minute,Max,Hour,Minute]
812,1,BUILDING STORY 4 THERMALZONE,Zone Air Temperature [C] !Hourly
813,7,BUILDING STORY 4 THERMALZONE,Zone Air Relative Humidity [%] !Daily [Value,Min,Hour,Minute,Max,Hour,Minute]
11,1,Electricity:Facility [J] !TimeStep
252,1,Gas:Facility [J] !TimeStep
End of Data Dictionary
1,BUFFALO NIAGARA INTL AP ANN CLG .4% CONDNS DB=>MWB 1,  42.93, -78.73,  -5.00, 215.00
2,1, 7,21, 0, 1, 0.00,60.00,SummerDesignDay
8,19.36840579326866
11,15941627641.722363
252,11483640371.056149
2,1, 7,21, 0, 1, 0.00,60.00,SummerDesignDay
692,25.250293125069058
732,25.979438800228544
772,24.04295898993769
812,25.763226321821184
2,1, 7,21, 0, 2, 0.00,60.00,SummerDesignDay
8,19.25226217922265
11,15427272391.082146
252,6642004907.884685
2,1, 7,21, 0, 2, 0.00,60.00,SummerDesignDay
692,25.307805351538297
732,26.184982615085759
772,24.041125634587496
812,25.901735599974648
2,1, 7,21, 0, 3, 0.00,60.00,SummerDesignDay
8,19.164819553782637
11,15420162192.334624
252,6457276570.740365
2,1, 7,21, 0, 3, 0.00,60.00,SummerDesignDay
692,25.314635776351648
732,26.23942720884526
772,24.027769317598794
812,25.983502876061239
2,1, 7,21, 0, 4, 0.00,60.00,SummerDesignDay
8,19.0770792448193
11,15411065476.219517
252,6457276570.740365
2,1, 7,21, 0, 4, 0.00,60.00,SummerDesignDay
692,25.306897180534816
732,26.249392634253306
772,24.018517030176758
812,26.046973173717079
2,1, 7,21, 0, 5, 0.00,60.00,SummerDesignDay
8,19.018427637799467
11,15399590911.228287
252,6457276570.740365
2,1, 7,21, 0, 5, 0.00,60.00,SummerDesignDay
692,25.302495514334259
732,26.26152682254928
772,24.009446859013769
812,26.109799503104364
2,1, 7,21, 0, 6, 0.00,60.00,SummerDesignDay
8,19.0770792448193
11,15000426497.756087
252,6457276570.740365
2,1, 7,21, 0, 6, 0.00,60.00,SummerDesignDay
692,25.375763509432255
732,26.305560971824407
772,24.037838729062483
812,25.720259960728414
2,1, 7,21, 0, 7, 0.00,60.00,SummerDesignDay
8,19.281346189070228
11,15552756528.56675
252,11408129793.469204
2,1, 7,21, 0, 7, 0.00,60.00,SummerDesignDay
692,25.011658606515604
732,26.03436757110548
772,23.99488889582556
812,25.036368010546043
2,1, 7,21, 0, 8, 0.00,60.00,SummerDesignDay
8,19.770887505670989
11,17357489138.947149
252,12827009681.984845
2,1, 7,21, 0, 8, 0.00,60.00,SummerDesignDay
692,24.056011011778034
732,25.99181630002872
772,23.9881963317966
812,24.074939240282438
2,1, 7,21, 0, 9, 0.00,60.00,SummerDesignDay
8,20.30732185289352
11,17397480609.81184
252,12792977087.040272
2,1, 7,21, 0, 9, 0.00,60.00,SummerDesignDay
692,23.997631081408377
732,25.98097332266513
772,23.98398900751043
812,23.998277760972909
2,1, 7,21, 0,10, 0.00,60.00,SummerDesignDay
8,20.778037156782458
11,17441467076.53853
252,12424285933.95277
2,1, 7,21, 0,10, 0.00,60.00,SummerDesignDay
692,23.9973142486786
732,25.979282344609936
772,23.982727949070477
812,23.997465960508923
2,1, 7,21, 0,11, 0.00,60.00,SummerDesignDay
8,21.186337137460165
11,17500234709.03488
252,12377341285.27977
2,1, 7,21, 0,11, 0.00,60.00,SummerDesignDay
692,23.997436491844224
732,25.97864706710892
772,23.98228922550164
812,23.997232036984238
2,1, 7,21, 0,12, 0.00,60.00,SummerDesignDay
8,21.45495938709981
11,17723785344.046644
252,12424916207.65121
2,1, 7,21, 0,12, 0.00,60.00,SummerDesignDay
692,23.99747823088265
732,25.978438876206928
772,23.98219582534658
812,23.99712686358406
2,1, 7,21, 0,13, 0.00,60.00,SummerDesignDay
8,21.667839996742449
11,17763500133.586908
252,12288691171.260422
2,1, 7,21, 0,13, 0.00,60.00,SummerDesignDay
692,23.99742007226792
732,25.978313880576836
772,23.982190699336976
812,23.997085876054777
2,1, 7,21, 0,14, 0.00,60.00,SummerDesignDay
8,21.799990419629109
11,17772725123.08031
252,12107763842.43959
2,1, 7,21, 0,14, 0.00,60.00,SummerDesignDay
692,23.997387819144885
732,25.97818167901541
772,23.98219897774758
812,23.997068957633677
2,1, 7,21, 0,15, 0.00,60.00,SummerDesignDay
8,21.799990419629109
11,17659346247.187986
252,11955090511.451352
2,1, 7,21, 0,15, 0.00,60.00,SummerDesignDay
692,23.997443868241825
732,25.978117441423224
772,23.982260990405036
812,23.99708272653543
2,1, 7,21, 0,16, 0.00,60.00,SummerDesignDay
8,21.641326796728476
11,17572622461.613759
252,11954876604.808773
2,1, 7,21, 0,16, 0.00,60.00,SummerDesignDay
692,23.997572130435715
732,25.978128670505354
772,23.982371135750694
812,23.99715021772377
2,1, 7,21, 0,17, 0.00,60.00,SummerDesignDay
8,21.42822317147698
11,17450515234.268095
252,11954659133.024262
2,1, 7,21, 0,17, 0.00,60.00,SummerDesignDay
692,23.99770132238661
732,25.978168381288353
772,23.982477752791469
812,23.99723627849725
2,1, 7,21, 0,18, 0.00,60.00,SummerDesignDay
8,21.15931786227956
11,17427107352.57922
252,12377321120.194046
2,1, 7,21, 0,18, 0.00,60.00,SummerDesignDay
692,23.997801192240837
732,25.97823128617588
772,23.98256749350049
812,23.99731733170512
2,1, 7,21, 0,19, 0.00,60.00,SummerDesignDay
8,20.750583661392644
11,17424124925.859506
252,12793776723.443028
2,1, 7,21, 0,19, 0.00,60.00,SummerDesignDay
692,23.99789491149112
732,25.978339274287469
772,23.982657034231399
812,23.99742423365463
2,1, 7,21, 0,20, 0.00,60.00,SummerDesignDay
8,20.446661088459409
11,17230067950.431016
252,12827630769.52182
2,1, 7,21, 0,20, 0.00,60.00,SummerDesignDay
692,23.997974377713687
732,25.978465669127784
772,23.982700633572834
812,23.997533744858335
2,1, 7,21, 0,21, 0.00,60.00,SummerDesignDay
8,20.19530361990708
11,17544900887.388429
252,12469202653.464804
2,1, 7,21, 0,21, 0.00,60.00,SummerDesignDay
692,23.99792708794954
732,25.978394645226435
772,23.98255223452541
812,23.99751990454104
2,1, 7,21, 0,22, 0.00,60.00,SummerDesignDay
8,19.941485234887624
11,17506488537.475439
252,12792849880.952715
2,1, 7,21, 0,22, 0.00,60.00,SummerDesignDay
692,23.997817594418984
732,25.978261264826409
772,23.98236322112468
812,23.997443315549736
2,1, 7,21, 0,23, 0.00,60.00,SummerDesignDay
8,19.7423381019073
11,16804472565.950554
252,12424565601.482613
2,1, 7,21, 0,23, 0.00,60.00,SummerDesignDay
692,24.91511350535907
732,25.985922431804477
772,23.989052213203757
812,25.313053938191005
2,1, 7,21, 0,24, 0.00,60.00,SummerDesignDay
8,19.54165603023991
11,16356237994.518239
252,11890561210.088887
2,1, 7,21, 0,24, 0.00,60.00,SummerDesignDay
692,25.141846457829347
732,25.98223461371396
772,23.985885606451605
812,25.583824016599136
3,1, 7,21, 0,SummerDesignDay
693,51.779831684811579,50.721548478368628,24,60,55.22280394210064, 8,20
733,53.879032166586288,53.52074455479555,17,60,54.32802412175829, 4,60
773,59.368878013921719,58.47073974639693,16,60,60.23733452713569, 5,60
813,50.757344262892249,49.65336471554954,23,36,52.929177841204047,22,60
4,1, 7
7,25.312875000000003,21.0,21, 5,60,30.3,21,14,60
1,BUFFALO NIAGARA INTL AP ANN CLG .4% CONDNS WB=>MDB 1,  42.93, -78.73,  -5.00, 215.00
2,1, 7,21, 0, 1, 0.00,60.00,SummerDesignDay
8,19.615996954992807
11,15998058120.931729
252,11483640371.056149
2,1, 7,21, 0, 1, 0.00,60.00,SummerDesignDay
692,24.99878175622488
732,25.97925061071601
772,24.00029585231339
812,25.441255448140493
2,1, 7,21, 0, 2, 0.00,60.00,SummerDesignDay
8,19.243988037109376
11,15431811359.773013
252,6642004907.884685
2,1, 7,21, 0, 2, 0.00,60.00,SummerDesignDay
692,25.03122242290818
732,26.167744636344378
772,23.98990839469234
812,25.54021595361266
2,1, 7,21, 0, 3, 0.00,60.00,SummerDesignDay
8,18.96499632356402
11,15379195094.05483
252,6457276570.740365
2,1, 7,21, 0, 3, 0.00,60.00,SummerDesignDay
692,25.025266293493563
732,26.2171194735218
772,23.975908352665419
812,25.593735627947408
2,1, 7,21, 0, 4, 0.00,60.00,SummerDesignDay
8,18.685989379882814
11,15327239063.783165
252,6457276570.740365
2,1, 7,21, 0, 4, 0.00,60.00,SummerDesignDay
692,25.00808314100746
732,26.225557838619847
772,23.96406668766996
812,25.63164446091644
2,1, 7,21, 0, 5, 0.00,60.00,SummerDesignDay
8,18.49999810986028
11,15287825277.119149
252,6457276570.740365
2,1, 7,21, 0, 5, 0.00,60.00,SummerDesignDay
692,24.99446298245546
732,26.23614446193635
772,23.95289773523638
812,25.6698088240854
2,1, 7,21, 0, 6, 0.00,60.00,SummerDesignDay
8,18.685989379882814
11,14870777510.542963
252,6457276570.740365
2,1, 7,21, 0, 6, 0.00,60.00,SummerDesignDay
692,25.05445338455111
732,26.2775106548674
772,23.977069737157096
812,25.695550944531026
2,1, 7,21, 0, 7, 0.00,60.00,SummerDesignDay
8,19.336990356445314
11,15434698838.605435
252,11408673518.602879
2,1, 7,21, 0, 7, 0.00,60.00,SummerDesignDay
692,25.00093557978842
732,26.053065605355479
772,23.98255184618253
812,25.05176338412123
2,1, 7,21, 0, 8, 0.00,60.00,SummerDesignDay
8,20.917992548817627
11,17543944104.484598
252,12827009976.810627
2,1, 7,21, 0, 8, 0.00,60.00,SummerDesignDay
692,24.05319468364131
732,25.994243174699635
772,23.985919661375087
812,24.070909489065817
2,1, 7,21, 0, 9, 0.00,60.00,SummerDesignDay
8,22.420023807696297
11,18169363213.461557
252,12792979604.714035
2,1, 7,21, 0, 9, 0.00,60.00,SummerDesignDay
692,23.997071671743137
732,25.981128642450828
772,23.983678931793727
812,23.99709250438525
2,1, 7,21, 0,10, 0.00,60.00,SummerDesignDay
8,22.854695006230427
11,18429557130.58393
252,12424288978.397408
2,1, 7,21, 0,10, 0.00,60.00,SummerDesignDay
692,23.99653122052976
732,25.979248027528216
772,23.98245152730658
812,23.99605144138954
2,1, 7,21, 0,11, 0.00,60.00,SummerDesignDay
8,23.232104587122938
11,18652716166.433469
252,12377344448.248297
2,1, 7,21, 0,11, 0.00,60.00,SummerDesignDay
692,23.996417144021949
732,25.97853848595849
772,23.9820231936907
812,23.995638191447335
2,1, 7,21, 0,12, 0.00,60.00,SummerDesignDay
8,23.480593542408348
11,18982615257.153337
252,12424919121.089604
2,1, 7,21, 0,12, 0.00,60.00,SummerDesignDay
692,23.996370965518588
732,25.978304236632864
772,23.981951620440158
812,23.995499735690577
2,1, 7,21, 0,13, 0.00,60.00,SummerDesignDay
8,23.677626430315248
11,19110697425.10865
252,12287140695.515736
2,1, 7,21, 0,13, 0.00,60.00,SummerDesignDay
692,23.99631724079328
732,25.978169303063639
772,23.981960910254509
812,23.995472689963884
2,1, 7,21, 0,14, 0.00,60.00,SummerDesignDay
8,23.799986320868798
11,19183910508.79443
252,12109348502.689717
2,1, 7,21, 0,14, 0.00,60.00,SummerDesignDay
692,23.9963134421554
732,25.97803319745594
772,23.98197738379156
812,23.995460060246335
2,1, 7,21, 0,15, 0.00,60.00,SummerDesignDay
8,23.799986320868798
11,19075062857.559385
252,11955094662.280323
2,1, 7,21, 0,15, 0.00,60.00,SummerDesignDay
692,23.9964050530136
732,25.977968771887704
772,23.982047691173997
812,23.995487874094225
2,1, 7,21, 0,16, 0.00,60.00,SummerDesignDay
8,23.653081835774505
11,18909413023.49641
252,11954880824.56979
2,1, 7,21, 0,16, 0.00,60.00,SummerDesignDay
692,23.996566264492935
732,25.977981580176487
772,23.982166575070907
812,23.995582076920934
2,1, 7,21, 0,17, 0.00,60.00,SummerDesignDay
8,23.4558543827806
11,18686781769.983045
252,11954663423.35868
2,1, 7,21, 0,17, 0.00,60.00,SummerDesignDay
692,23.996718664869325
732,25.978022800630254
772,23.98227958523404
812,23.995690641978798
2,1, 7,21, 0,18, 0.00,60.00,SummerDesignDay
8,23.207119318496696
11,18550474423.986719
252,12377324662.782748
2,1, 7,21, 0,18, 0.00,60.00,SummerDesignDay
692,23.99683762870027
732,25.978086899465933
772,23.982373446547123
812,23.995794933912973
2,1, 7,21, 0,19, 0.00,60.00,SummerDesignDay
8,22.82933132300861
11,18383943035.26559
252,12793779310.101708
2,1, 7,21, 0,19, 0.00,60.00,SummerDesignDay
692,23.996953631583869
732,25.97819649494572
772,23.982466863216698
812,23.995940282687497
2,1, 7,21, 0,20, 0.00,60.00,SummerDesignDay
8,22.548645905899027
11,18059087015.84622
252,12827633189.144183
2,1, 7,21, 0,20, 0.00,60.00,SummerDesignDay
692,23.997048723803898
732,25.97832210391366
772,23.982508015663144
812,23.996082681223894
2,1, 7,21, 0,21, 0.00,60.00,SummerDesignDay
8,22.312987690310977
11,18292154403.18256
252,12469205941.616654
2,1, 7,21, 0,21, 0.00,60.00,SummerDesignDay
692,23.99696581955666
732,25.978247415041204
772,23.982350179434169
812,23.99603474013603
2,1, 7,21, 0,22, 0.00,60.00,SummerDesignDay
8,21.475995587251039
11,17968912232.666227
252,12792852835.28663
2,1, 7,21, 0,22, 0.00,60.00,SummerDesignDay
692,23.996816737953748
732,25.978079316959066
772,23.98210475249263
812,23.99592462194007
2,1, 7,21, 0,23, 0.00,60.00,SummerDesignDay
8,20.824995071347869
11,17093080636.775687
252,12424859241.156437
2,1, 7,21, 0,23, 0.00,60.00,SummerDesignDay
692,24.764577705213644
732,25.984296154588305
772,23.987610857887945
812,25.113701578334358
2,1, 7,21, 0,24, 0.00,60.00,SummerDesignDay
8,20.173995840857065
11,16490240183.511799
252,11890556318.630276
2,1, 7,21, 0,24, 0.00,60.00,SummerDesignDay
692,24.929067300737434
732,25.981752568595988
772,23.985383393490979
812,25.311965274722455
3,1, 7,21, 0,SummerDesignDay
693,55.109044380180339,52.970635502754998, 6,60,57.60539564973144,22,60
733,54.14223210394789,53.83526528783802,17,60,54.471213807103797, 4,60
773,59.88153729101606,59.05923428629267,16,60,60.51901700196878, 5,60
813,54.46941754765788,51.698283386967009, 6,60,57.19771063687116,22,60
4,1, 7
7,22.812875000000003,18.5,21, 5,60,27.8,21,14,60
1,BUFFALO NIAGARA INTL AP ANN HTG 99.6% CONDNS DB 1,  42.93, -78.73,  -5.00, 215.00
2,1, 1,21, 0, 1, 0.00,60.00,WinterDesignDay
8,-16.3
11,3625582623.4771859
252,29874603293.935964
2,1, 1,21, 0, 1, 0.00,60.00,WinterDesignDay
692,15.761731454796144
732,18.999094254603834
772,20.99626336849981
812,15.600665780334369
2,1, 1,21, 0, 2, 0.00,60.00,WinterDesignDay
8,-16.3
11,3240983029.1233575
252,23934958330.9461
2,1, 1,21, 0, 2, 0.00,60.00,WinterDesignDay
692,15.600065909232363
732,18.990489791766057
772,20.996261183754919
812,15.601653381412725
2,1, 1,21, 0, 3, 0.00,60.00,WinterDesignDay
8,-16.3
11,3241581472.5147478
252,24053524417.095869
2,1, 1,21, 0, 3, 0.00,60.00,WinterDesignDay
692,15.59992483143511
732,18.986903429967659
772,20.996259158554076
812,15.60095006407023
2,1, 1,21, 0, 4, 0.00,60.00,WinterDesignDay
8,-16.3
11,3242186285.799251
252,24213176636.38901
2,1, 1,21, 0, 4, 0.00,60.00,WinterDesignDay
692,15.599895939982
732,18.985708117313008
772,20.99625722901471
812,15.599654771576058
2,1, 1,21, 0, 5, 0.00,60.00,WinterDesignDay
8,-16.3
11,3242788230.1065509
252,24355382368.513944
2,1, 1,21, 0, 5, 0.00,60.00,WinterDesignDay
692,15.600185227596305
732,18.98503081723239
772,20.996255380522894
812,15.60168796663216
2,1, 1,21, 0, 6, 0.00,60.00,WinterDesignDay
8,-16.3
11,3265973887.538069
252,26771585118.929555
2,1, 1,21, 0, 6, 0.00,60.00,WinterDesignDay
692,17.474271566459778
732,19.000492238344898
772,20.99625345244299
812,17.483408945021745
2,1, 1,21, 0, 7, 0.00,60.00,WinterDesignDay
8,-16.3
11,3565421334.1485049
252,34252560162.30504
2,1, 1,21, 0, 7, 0.00,60.00,WinterDesignDay
692,18.8882197358282
732,19.000740576009834
772,20.996251758819264
812,18.68836810191744
2,1, 1,21, 0, 8, 0.00,60.00,WinterDesignDay
8,-16.3
11,3564424221.954192
252,34200773529.163614
2,1, 1,21, 0, 8, 0.00,60.00,WinterDesignDay
692,19.315705224153068
732,18.990672705939038
772,20.99625027624174
812,19.061207507184393
2,1, 1,21, 0, 9, 0.00,60.00,WinterDesignDay
8,-16.3
11,2908461633.965948
252,34145703145.039354
2,1, 1,21, 0, 9, 0.00,60.00,WinterDesignDay
692,19.700382674762147
732,18.98757187077872
772,20.996248723341404
812,19.39778593913671
2,1, 1,21, 0,10, 0.00,60.00,WinterDesignDay
8,-16.3
11,3902714004.3739025
252,35528747120.5704
2,1, 1,21, 0,10, 0.00,60.00,WinterDesignDay
692,19.87542947789536
732,18.986401984842609
772,20.996247345139559
812,19.583342952752966
2,1, 1,21, 0,11, 0.00,60.00,WinterDesignDay
8,-16.3
11,3784749605.79033
252,35326932472.731739
2,1, 1,21, 0,11, 0.00,60.00,WinterDesignDay
692,19.973079649131369
732,18.985720743523957
772,20.996246079800465
812,19.711530977068564
2,1, 1,21, 0,12, 0.00,60.00,WinterDesignDay
8,-16.3
11,3883473667.710433
252,35546102619.36415
2,1, 1,21, 0,12, 0.00,60.00,WinterDesignDay
692,20.06122827410567
732,18.985235451947675
772,20.996244865326238
812,19.831953407969665
2,1, 1,21, 0,13, 0.00,60.00,WinterDesignDay
8,-16.3
11,3871695854.9655477
252,35528587293.541919
2,1, 1,21, 0,13, 0.00,60.00,WinterDesignDay
692,20.140134184397409
732,18.98486544806227
772,20.996243701758919
812,19.946080508312183
2,1, 1,21, 0,14, 0.00,60.00,WinterDesignDay
8,-16.3
11,3774157251.47959
252,35280734424.2037
2,1, 1,21, 0,14, 0.00,60.00,WinterDesignDay
692,20.21689541185666
732,18.9845595026884
772,20.996242598302069
812,20.052833638207014
2,1, 1,21, 0,15, 0.00,60.00,WinterDesignDay
8,-16.3
11,3677828611.273575
252,35015468239.26613
2,1, 1,21, 0,15, 0.00,60.00,WinterDesignDay
692,20.283461045748557
732,18.984289816965057
772,20.996241554607605
812,20.153694953615763
2,1, 1,21, 0,16, 0.00,60.00,WinterDesignDay
8,-16.3
11,3666530217.7220265
252,35011874097.12228
2,1, 1,21, 0,16, 0.00,60.00,WinterDesignDay
692,20.34976374459682
732,18.98404392063555
772,20.99624056791827
812,20.256644459105514
2,1, 1,21, 0,17, 0.00,60.00,WinterDesignDay
8,-16.3
11,3576814372.5736219
252,34979178557.67761
2,1, 1,21, 0,17, 0.00,60.00,WinterDesignDay
692,20.407079782039579
732,18.983815718859494
772,20.996239635473679
812,20.345920255878445
2,1, 1,21, 0,18, 0.00,60.00,WinterDesignDay
8,-16.3
11,4330779920.004981
252,34983397346.05305
2,1, 1,21, 0,18, 0.00,60.00,WinterDesignDay
692,20.46505743517314
732,18.98360175838037
772,20.996238754483607
812,20.430827290882804
2,1, 1,21, 0,19, 0.00,60.00,WinterDesignDay
8,-16.3
11,4623361451.464109
252,35460974104.19815
2,1, 1,21, 0,19, 0.00,60.00,WinterDesignDay
692,20.514319365186326
732,18.98339988098357
772,20.99623792217864
812,20.52001030848296
2,1, 1,21, 0,20, 0.00,60.00,WinterDesignDay
8,-16.3
11,4608080720.285711
252,35449777647.7575
2,1, 1,21, 0,20, 0.00,60.00,WinterDesignDay
692,20.565130015397285
732,18.983208628798736
772,20.996237135899475
812,20.59778624381967
2,1, 1,21, 0,21, 0.00,60.00,WinterDesignDay
8,-16.3
11,4486218058.671114
252,35441584375.79416
2,1, 1,21, 0,21, 0.00,60.00,WinterDesignDay
692,20.607409151253238
732,18.983026938062847
772,20.996236393117795
812,20.67904931776136
2,1, 1,21, 0,22, 0.00,60.00,WinterDesignDay
8,-16.3
11,4591379985.273188
252,35429260838.82614
2,1, 1,21, 0,22, 0.00,60.00,WinterDesignDay
692,20.64978249819198
732,18.982853986545206
772,20.9962356914339
812,20.74973228463737
2,1, 1,21, 0,23, 0.00,60.00,WinterDesignDay
8,-16.3
11,4214477103.364796
252,29775264160.23427
2,1, 1,21, 0,23, 0.00,60.00,WinterDesignDay
692,17.55359092797307
732,18.999756086974555
772,20.996234957014605
812,16.300532108368527
2,1, 1,21, 0,24, 0.00,60.00,WinterDesignDay
8,-16.3
11,4024584813.79443
252,30018512819.21345
2,1, 1,21, 0,24, 0.00,60.00,WinterDesignDay
692,16.387394029082228
732,19.001864169326394
772,20.996234321977285
812,15.619563835482632
3,1, 1,21, 0,WinterDesignDay
693,6.803197435942747,6.018439477559708,22,60,8.26678041922654, 4,60
733,6.671745801407394,6.664572929254338,24,10,6.674085829262655,22,60
773,5.89145176253914,5.891445222079885, 1,20,5.891455928576952,23,25
813,6.88166662183641,5.9814919758539839,22,60,8.267069994883336,24,50
4,1, 1
7,-16.300000000000009,-16.3,21, 1,60,-16.3,21, 1,60
End of Data
 Number of Records Written=         519
