Program Version,EnergyPlus, Version 9.1.0-fafb9d5652, YMD=2020.03.26 13:24
1,5,Environment Title[],Latitude[deg],Longitude[deg],Time Zone[],Elevation[m]
2,8,Day of Simulation[],Month[],Day of Month[],DST Indicator[1=yes 0=no],Hour[],StartMinute[],EndMinute[],DayType
3,5,Cumulative Day of Simulation[],Month[],Day of Month[],DST Indicator[1=yes 0=no],DayType  ! When Daily Report Variables Requested
4,2,Cumulative Days of Simulation[],Month[]  ! When Monthly Report Variables Requested
5,1,Cumulative Days of Simulation[] ! When Run Period Report Variables Requested
6,1,Calendar Year of Simulation[] ! When Annual Report Variables Requested
699,1,BUILDING STORY 1 THERMALZONE FULLSERVICERESTAURANT DINING PEOPLE 1,Zone Thermal Comfort Fanger Model PMV [] !TimeStep
700,1,BUILDING STORY 1 THERMALZONE FULLSERVICERESTAURANT DINING PEOPLE 1,Zone Thermal Comfort Fanger Model PPD [%] !TimeStep
701,1,BUILDING STORY 1 THERMALZONE FULLSERVICERESTAURANT KITCHEN PEOPLE 1,Zone Thermal Comfort Fanger Model PMV [] !TimeStep
702,1,BUILDING STORY 1 THERMALZONE FULLSERVICERESTAURANT KITCHEN PEOPLE 1,Zone Thermal Comfort Fanger Model PPD [%] !TimeStep
703,1,BUILDING STORY 1 THERMALZONE,Zone Thermal Comfort ASHRAE 55 Simple Model Summer Clothes Not Comfortable Time [hr] !TimeStep
704,1,BUILDING STORY 1 THERMALZONE,Zone Thermal Comfort ASHRAE 55 Simple Model Winter Clothes Not Comfortable Time [hr] !TimeStep
705,1,BUILDING STORY 1 THERMALZONE,Zone Thermal Comfort ASHRAE 55 Simple Model Summer or Winter Clothes Not Comfortable Time [hr] !TimeStep
859,1,Heating:Electricity [J] !TimeStep
885,1,Heating:Gas [J] !TimeStep
833,1,Cooling:Electricity [J] !TimeStep
46,1,InteriorLights:Electricity [J] !TimeStep
744,1,ExteriorLights:Electricity [J] !TimeStep
84,1,InteriorEquipment:Electricity [J] !TimeStep
158,1,InteriorEquipment:Gas [J] !TimeStep
719,1,Fans:Electricity [J] !TimeStep
952,1,Pumps:Electricity [J] !TimeStep
256,1,WaterSystems:Electricity [J] !TimeStep
406,1,WaterSystems:Gas [J] !TimeStep
307,1,WaterSystems:Water [m3] !TimeStep
10,1,Electricity:Facility [J] !TimeStep
122,1,Gas:Facility [J] !TimeStep
283,1,Water:Facility [m3] !TimeStep
End of Data Dictionary
1,RUN PERIOD 1,  42.93, -78.73,  -5.00, 215.00
2,1, 1, 1, 0, 1, 0.00,60.00,Tuesday
699,-0.4410433162948525
700,9.057952988644047
701,-0.4410433162948525
702,9.057952988644047
703,1.0
704,0.0
705,0.0
10,94547167.3109057
46,10584860.447778857
84,35224072.69860412
122,406150653.19146606
158,39631247.733802799
256,23266605.88197963
283,0.40833481098217896
307,0.40833481098217896
406,366519405.45766326
719,0.0
744,25471628.279999999
833,0.0
859,0.0
885,0.0
952,0.002543090910367526
2,1, 1, 1, 0, 2, 0.00,60.00,Tuesday
699,-0.2958764290453763
700,6.818953571632008
701,-0.2958764290453763
702,6.818953571632008
703,0.0
704,0.0
705,0.0
10,61095969.05961523
46,11769285.075227144
84,23482715.132402749
122,29336570.36760238
158,26420831.8225352
256,372340.5719853417
283,0.0
307,0.0
406,2915738.545067183
719,0.0
744,25471628.279999999
833,0.0
859,0.0
885,0.0
952,0.0
2,1, 1, 1, 0, 3, 0.00,60.00,Tuesday
699,-0.2957216985674778
700,6.817044897421596
701,-0.2957216985674778
702,6.817044897421596
703,0.0
704,0.0
705,0.0
10,72651122.16259386
46,11769285.075227144
84,35224072.69860412
122,39631247.733802799
158,39631247.733802799
256,186136.10876259703
283,0.0
307,0.0
406,0.0
719,0.0
744,25471628.279999999
833,0.0
859,0.0
885,0.0
952,0.0
2,1, 1, 1, 0, 4, 0.00,60.00,Tuesday
699,-0.2867283645422915
700,6.707845463090251
701,-0.2867283645422915
702,6.707845463090251
703,0.0
704,0.0
705,0.0
10,61096219.08089818
46,11769285.075227144
84,23482715.132402749
122,26420831.8225352
158,26420831.8225352
256,372590.59326828949
283,0.0
307,0.0
406,0.0
719,0.0
744,25471628.279999999
833,0.0
859,0.0
885,0.0
952,0.0
2,1, 1, 1, 0, 5, 0.00,60.00,Tuesday
699,-0.2684664880795209
700,6.4966061819765319
701,-0.2684664880795209
702,6.4966061819765319
703,0.0
704,0.0
705,0.0
10,96320224.47973983
46,11769285.075227144
84,58706787.83100687
122,66052079.556338008
158,66052079.556338008
256,372523.2935058256
283,0.0
307,0.0
406,0.0
719,0.0
744,25471628.279999999
833,0.0
859,0.0
885,0.0
952,0.0
2,1, 1, 1, 0, 6, 0.00,60.00,Tuesday
699,-0.19698251159777295
700,5.804592384547988
701,-0.19698251159777295
702,5.804592384547988
703,1.0
704,0.0
705,0.0
10,180851860.50366346
46,14111415.234047126
84,140896290.7944165
122,158524990.93521119
158,158524990.93521119
256,372526.1951998052
283,0.0
307,0.0
406,0.0
719,0.0
744,25471628.279999999
833,0.0
859,0.0
885,0.0
952,0.0
2,1, 1, 1, 0, 7, 0.00,60.00,Tuesday
699,0.06625486246885866
700,5.0908870020266339
701,0.06625486246885866
702,5.0908870020266339
703,1.0
704,0.0
705,0.0
10,220847398.01176704
46,28222830.468094253
84,152637648.36061786
122,531704639.0278083
158,171735406.8464788
256,372370.87264657966
283,0.3062511082366342
307,0.3062511082366342
406,359969232.1813295
719,0.0
744,39614548.307940099
833,0.0
859,0.0
885,0.0
952,0.002468287368899971
2,1, 1, 1, 0, 8, 0.00,60.00,Tuesday
699,0.22443842889402228
700,6.0450303487972409
701,0.22443842889402228
702,6.0450303487972409
703,1.0
704,0.0
705,0.0
10,418582983.0882894
46,28222830.468094253
84,176120363.4930206
122,884624208.3956815
158,198156238.66901399
256,68694725.61909952
283,1.225004432946537
307,1.225004432946537
406,446057148.73863676
719,105930515.19699349
744,39614548.307940099
833,0.0
859,0.0
885,240410820.9880308
952,0.0031415192421079647
2,1, 1, 1, 0, 9, 0.00,60.00,Tuesday
699,-0.21542249244536336
700,5.962594979809268
701,-0.21542249244536336
702,5.962594979809268
703,1.0
704,0.0
705,0.0
10,425290668.68506798
46,42334245.70214138
84,211344436.1916247
122,959192094.0281764
158,237787486.40281678
256,65681471.591241639
283,1.1229207302009923
307,1.1229207302009923
406,446057148.7386368
719,105930515.19699349
744,0.0
833,0.0
859,0.0
885,275347458.8867229
952,0.0030667157006404098
2,1, 1, 1, 0,10, 0.00,60.00,Tuesday
699,-0.3122498506940572
700,7.02664897821677
701,-0.3122498506940572
702,7.02664897821677
703,1.0
704,0.0
705,0.0
10,446623593.1135214
46,42334245.70214138
84,246568508.89022885
122,931196856.4718275
158,277418734.13661959
256,51790323.321240577
283,0.9187533247099027
307,0.9187533247099027
406,432176872.5930955
719,105930515.19699349
744,0.0
833,0.0
859,0.0
885,221601249.74211244
952,0.0029171086177053006
2,1, 1, 1, 0,11, 0.00,60.00,Tuesday
699,-0.30805277072833928
700,6.9723284107436289
701,-0.30805277072833928
702,6.9723284107436289
703,1.0
704,0.0
705,0.0
10,520888815.4057897
46,63503966.59769909
84,305275296.7212357
122,970519874.6580048
158,343470813.6929576
256,46179036.8870191
283,0.8166696219643579
307,0.8166696219643579
406,403348128.4310657
719,105930515.19699349
744,0.0
833,0.0
859,0.0
885,223700932.53398154
952,0.002842305076237745
2,1, 1, 1, 0,12, 0.00,60.00,Tuesday
699,-0.28593360721081026
700,6.698359546981862
701,-0.28593360721081026
702,6.698359546981862
703,1.0
704,0.0
705,0.0
10,561777915.480822
46,63503966.59769909
84,340499369.4198398
122,906433677.3084556
158,383102061.4267604
256,51844064.26337256
283,0.9187533247099027
307,0.9187533247099027
406,432173782.08273956
719,105930515.19699349
744,0.0
833,0.0
859,0.0
885,91157833.79895567
952,0.0029171086177053006
2,1, 1, 1, 0,13, 0.00,60.00,Tuesday
699,-0.26430022416867068
700,6.450383135366948
701,-0.26430022416867068
702,6.450383135366948
703,1.0
704,0.0
705,0.0
10,532536335.07954356
46,63503966.59769909
84,317016654.2874371
122,760023331.7617509
158,356681229.6042252
256,46085198.99457155
283,0.8166696219643579
307,0.8166696219643579
406,403342102.15752568
719,105930515.19699349
744,0.0
833,0.0
859,0.0
885,0.0
952,0.002842305076237745
2,1, 1, 1, 0,14, 0.00,60.00,Tuesday
699,-0.2421320632118631
700,6.216717624611675
701,-0.2421320632118631
702,6.216717624611675
703,1.0
704,0.0
705,0.0
10,503404412.55163249
46,63503966.59769909
84,293533939.1550343
122,733313007.0481769
158,330260397.78169
256,40435991.599138017
283,0.7145859192188131
307,0.7145859192188131
406,403052609.2664869
719,105930515.19699349
744,0.0
833,0.0
859,0.0
885,0.0
952,0.0027675015347701909
2,1, 1, 1, 0,15, 0.00,60.00,Tuesday
699,-0.2646063937271187
700,6.453755081358452
701,-0.2646063937271187
702,6.453755081358452
703,1.0
704,0.0
705,0.0
10,474234590.8858556
46,63503966.59769909
84,270051224.02263167
122,822796192.0510932
158,303839565.9591548
256,34748885.06583876
283,0.6125022164732684
307,0.6125022164732684
406,400027001.1242928
719,105930515.19699349
744,0.0
833,0.0
859,0.0
885,118929624.96764565
952,0.002692697993302636
2,1, 1, 1, 0,16, 0.00,60.00,Tuesday
699,-0.28238958317345688
700,6.656383919683236
701,-0.28238958317345688
702,6.656383919683236
703,1.0
704,0.0
705,0.0
10,474213121.84825167
46,63503966.59769909
84,270051224.02263167
122,886572203.958689
158,303839565.9591548
256,34727416.02823479
283,0.6125022164732684
307,0.6125022164732684
406,385951888.8539654
719,105930515.19699349
744,0.0
833,0.0
859,0.0
885,196780749.14556883
952,0.002692697993302636
2,1, 1, 1, 0,17, 0.00,60.00,Tuesday
699,-0.28567105830638458
700,6.695231723222619
701,-0.28567105830638458
702,6.695231723222619
703,1.0
704,0.0
705,0.0
10,509463117.365871
46,63503966.59769909
84,305275296.7212357
122,906672502.4244869
158,343470813.6929576
256,34753338.84725003
283,0.6125022164732684
307,0.6125022164732684
406,397546328.09231749
719,105930515.19699349
744,0.0
833,0.0
859,0.0
885,165655360.6392119
952,0.002692697993302636
2,1, 1, 1, 0,18, 0.00,60.00,Tuesday
699,-0.280258374869848
700,6.631396925677322
701,-0.280258374869848
702,6.631396925677322
703,1.0
704,0.0
705,0.0
10,560665662.0561503
46,63503966.59769909
84,305275296.7212357
122,849101254.1110312
158,343470813.6929576
256,46341335.22943963
283,0.8166696219643579
307,0.8166696219643579
406,406573496.2835431
719,105930515.19699349
744,39614548.307940099
833,0.0
859,0.0
885,99056944.13453041
952,0.002842305076237745
2,1, 1, 1, 0,19, 0.00,60.00,Tuesday
699,-0.267649115063022
700,6.487480111638959
701,-0.267649115063022
702,6.487480111638959
703,1.0
704,0.0
705,0.0
10,555282201.7562174
46,63503966.59769909
84,281792581.588833
122,791619690.0873722
158,317049981.87042239
256,64440590.06168507
283,1.1229207302009923
307,1.1229207302009923
406,446057148.7386368
719,105930515.19699349
744,39614548.307940099
833,0.0
859,0.0
885,28512559.478313094
952,0.0030667157006404098
2,1, 1, 1, 0,20, 0.00,60.00,Tuesday
699,-0.26393674893166577
700,6.446385187038999
701,-0.26393674893166577
702,6.446385187038999
703,1.0
704,0.0
705,0.0
10,536190915.67063286
46,63503966.59769909
84,258309866.4564302
122,773360339.9280387
158,290629150.0478872
256,68832019.10842848
283,1.2250044329465369
307,1.2250044329465369
406,446057148.7386368
719,105930515.19699349
744,39614548.307940099
833,0.0
859,0.0
885,36674041.14151467
952,0.003141519242107965
2,1, 1, 1, 0,21, 0.00,60.00,Tuesday
699,-0.2658197069156015
700,6.467156511948161
701,-0.2658197069156015
702,6.467156511948161
703,1.0
704,0.0
705,0.0
10,501616080.95585539
46,63503966.59769909
84,234827151.32402749
122,775747195.2343816
158,264208318.22535203
256,57739899.526203338
283,1.0208370274554473
307,1.0208370274554473
406,446057148.7386368
719,105930515.19699349
744,39614548.307940099
833,0.0
859,0.0
885,65481728.27039272
952,0.0029919121591728554
2,1, 1, 1, 0,22, 0.00,60.00,Tuesday
699,-0.28548415592903578
700,6.693006871946665
701,-0.28548415592903578
702,6.693006871946665
703,1.0
704,0.0
705,0.0
10,483073630.5268375
46,63503966.59769909
84,211344436.1916247
122,870396680.0853785
158,237787486.40281678
256,62680164.22951349
283,1.1229207302009923
307,1.1229207302009923
406,446057148.7386368
719,105930515.19699349
744,39614548.307940099
833,0.0
859,0.0
885,186552044.943925
952,0.0030667157006404098
2,1, 1, 1, 0,23, 0.00,60.00,Tuesday
699,-0.3416569451374391
700,7.428189925596428
701,-0.3416569451374391
702,7.428189925596428
703,1.0
704,0.0
705,0.0
10,337974372.84276196
46,35281136.12960483
84,105672218.09581235
122,864875962.663897
158,118893743.20140839
256,51475955.1094941
283,0.9187533247099027
307,0.9187533247099027
406,418302707.70064666
719,105930515.19699349
744,39614548.307940099
833,0.0
859,0.0
885,327679511.7618421
952,0.0029171086177053006
2,1, 1, 1, 0,24, 0.00,60.00,Tuesday
699,-0.3996320603179029
700,8.327560143486622
701,-0.3996320603179029
702,8.327560143486622
703,1.0
704,0.0
705,0.0
10,231006955.25199295
46,21169720.895557714
84,35224072.69860412
122,866919959.9105406
158,39631247.733802799
256,29068098.150279594
283,0.5104185137277236
307,0.5104185137277236
406,384203012.98688319
719,105930515.19699349
744,39614548.307940099
833,0.0
859,0.0
885,443085699.1898547
952,0.002617894451835081
2,2, 1, 2, 0, 1, 0.00,60.00,Wednesday
699,-0.44268341607146879
700,9.088395411453306
701,-0.44268341607146879
702,9.088395411453306
703,1.0
704,0.0
705,0.0
10,94526011.04169475
46,10584860.447778857
84,35224072.69860412
122,406239498.9854843
158,39631247.733802799
256,23245449.61276868
283,0.40833481098217896
307,0.40833481098217896
406,366608251.2516815
719,0.0
744,25471628.279999999
833,0.0
859,0.0
885,0.0
952,0.0025430846653832744
2,2, 1, 2, 0, 2, 0.00,60.00,Wednesday
699,-0.30191995043363298
700,6.8942949231965688
701,-0.30191995043363298
702,6.8942949231965688
703,0.0
704,0.0
705,0.0
10,61096102.769663099
46,11769285.075227144
84,23482715.132402749
122,37967146.2222283
158,26420831.8225352
256,372474.28203320255
283,0.0
307,0.0
406,11546314.399693106
719,0.0
744,25471628.279999999
833,0.0
859,0.0
885,0.0
952,0.0
2,2, 1, 2, 0, 3, 0.00,60.00,Wednesday
699,-0.32276342792529719
700,7.1659955069669369
701,-0.32276342792529719
702,7.1659955069669369
703,0.0
704,0.0
705,0.0
10,72837392.542804
46,11769285.075227144
84,35224072.69860412
122,39631247.733802799
158,39631247.733802799
256,372406.4889727419
283,0.0
307,0.0
406,0.0
719,0.0
744,25471628.279999999
833,0.0
859,0.0
885,0.0
952,0.0
2,2, 1, 2, 0, 4, 0.00,60.00,Wednesday
699,-0.3176801147187608
700,7.09803675523851
701,-0.3176801147187608
702,7.09803675523851
703,0.0
704,0.0
705,0.0
10,61095966.89814275
46,11769285.075227144
84,23482715.132402749
122,26420831.8225352
158,26420831.8225352
256,372338.41051285908
283,0.0
307,0.0
406,0.0
719,0.0
744,25471628.279999999
833,0.0
859,0.0
885,0.0
952,0.0
2,2, 1, 2, 0, 5, 0.00,60.00,Wednesday
699,-0.31614294259260769
700,7.07770192675801
701,-0.31614294259260769
702,7.07770192675801
703,0.0
704,0.0
705,0.0
10,96133836.20974775
46,11769285.075227144
84,58706787.83100687
122,66052079.556338008
158,66052079.556338008
256,186135.0235137547
283,0.0
307,0.0
406,0.0
719,0.0
744,25471628.279999999
833,0.0
859,0.0
885,0.0
952,0.0
2,2, 1, 2, 0, 6, 0.00,60.00,Wednesday
699,-0.24652853747817878
700,6.261416661707045
701,-0.24652853747817878
702,6.261416661707045
703,1.0
704,0.0
705,0.0
10,180851906.04385115
46,14111415.234047126
84,140896290.7944165
122,158524990.93521119
158,158524990.93521119
256,372571.7353875018
283,0.0
307,0.0
406,0.0
719,0.0
744,25471628.279999999
833,0.0
859,0.0
885,0.0
952,0.0
2,2, 1, 2, 0, 7, 0.00,60.00,Wednesday
699,-0.012737697925555954
700,5.003358658837769
701,-0.012737697925555954
702,5.003358658837769
703,1.0
704,0.0
705,0.0
10,220847589.76639147
46,28222830.468094253
84,152637648.36061786
122,531779810.9313241
158,171735406.8464788
256,372562.6272709969
283,0.30625110823663417
307,0.30625110823663417
406,360044404.0848453
719,0.0
744,39614548.307940099
833,0.0
859,0.0
885,0.0
952,0.0024682805750842206
2,2, 1, 2, 0, 8, 0.00,60.00,Wednesday
699,0.159021750731517
700,5.524058695239745
701,0.159021750731517
702,5.524058695239745
703,1.0
704,0.0
705,0.0
10,418646222.58092817
46,28222830.468094253
84,176120363.4930206
122,918644381.6319001
158,198156238.66901399
256,68757965.11173825
283,1.225004432946537
307,1.225004432946537
406,446057148.73863676
719,105930515.19699349
744,39614548.307940099
833,0.0
859,0.0
885,274430994.22424939
952,0.0031415105951708608
2,2, 1, 2, 0, 9, 0.00,60.00,Wednesday
699,-0.23578411165112507
700,6.153610115777624
701,-0.23578411165112507
702,6.153610115777624
703,1.0
704,0.0
705,0.0
10,425495997.6013329
46,42334245.70214138
84,211344436.1916247
122,968749434.2042244
158,237787486.40281678
256,65886800.50750663
283,1.1229207302009923
307,1.1229207302009923
406,446057148.7386368
719,105930515.19699349
744,0.0
833,0.0
859,0.0
885,284904799.0627708
952,0.003066707259597792
2,2, 1, 2, 0,10, 0.00,60.00,Wednesday
699,-0.3217165326401399
700,7.15191003081479
701,-0.3217165326401399
702,7.15191003081479
703,1.0
704,0.0
705,0.0
10,446645181.51994708
46,42334245.70214138
84,246568508.89022885
122,942638295.9846102
158,277418734.13661959
256,51811911.72766628
283,0.9187533247099027
307,0.9187533247099027
406,432195071.9829569
719,105930515.19699349
744,0.0
833,0.0
859,0.0
885,233024489.86503376
952,0.0029171005884516727
2,2, 1, 2, 0,11, 0.00,60.00,Wednesday
699,-0.31351596588799215
700,7.043182043798183
701,-0.31351596588799215
702,7.043182043798183
703,1.0
704,0.0
705,0.0
10,520823817.2031663
46,63503966.59769909
84,305275296.7212357
122,997095046.8083179
158,343470813.6929576
256,46114038.684395749
283,0.8166696219643579
307,0.8166696219643579
406,403403229.5605633
719,105930515.19699349
744,0.0
833,0.0
859,0.0
885,250221003.5547969
952,0.0028422972528786138
2,2, 1, 2, 0,12, 0.00,60.00,Wednesday
699,-0.28795038658618396
700,6.722483062493154
701,-0.28795038658618396
702,6.722483062493154
703,1.0
704,0.0
705,0.0
10,562065465.1622765
46,63503966.59769909
84,340499369.4198398
122,907776105.703759
158,383102061.4267604
256,52131613.94482706
283,0.9187533247099027
307,0.9187533247099027
406,432190680.634279
719,105930515.19699349
744,0.0
833,0.0
859,0.0
885,92483363.64271945
952,0.0029171005884516727
2,2, 1, 2, 0,13, 0.00,60.00,Wednesday
699,-0.2687426238093989
700,6.499695630928201
701,-0.2687426238093989
702,6.499695630928201
703,1.0
704,0.0
705,0.0
10,532516880.77964726
46,63503966.59769909
84,317016654.2874371
122,774296597.5799805
158,356681229.6042252
256,46065744.694675277
283,0.8166696219643579
307,0.8166696219643579
406,417615367.9757553
719,105930515.19699349
744,0.0
833,0.0
859,0.0
885,0.0
952,0.0028422972528786138
2,2, 1, 2, 0,14, 0.00,60.00,Wednesday
699,-0.2533067243455634
700,6.331922160724332
701,-0.2533067243455634
702,6.331922160724332
703,1.0
704,0.0
705,0.0
10,503466532.171714
46,63503966.59769909
84,293533939.1550343
122,760472216.5355362
158,330260397.78169
256,40498111.21921956
283,0.7145859192188131
307,0.7145859192188131
406,402257817.6065714
719,105930515.19699349
744,0.0
833,0.0
859,0.0
885,27954001.1472749
952,0.002767493917305554
2,2, 1, 2, 0,15, 0.00,60.00,Wednesday
699,-0.27284533893741338
700,6.545975878280089
701,-0.27284533893741338
702,6.545975878280089
703,1.0
704,0.0
705,0.0
10,474233151.18657967
46,63503966.59769909
84,270051224.02263167
122,834281617.3665025
158,303839565.9591548
256,34747445.366562809
283,0.6125022164732684
307,0.6125022164732684
406,386041334.6242125
719,105930515.19699349
744,0.0
833,0.0
859,0.0
885,144400716.78313525
952,0.0026926905817324946
2,2, 1, 2, 0,16, 0.00,60.00,Wednesday
699,-0.2916129443166264
700,6.766731508533709
701,-0.2916129443166264
702,6.766731508533709
703,1.0
704,0.0
705,0.0
10,474089740.3515665
46,63503966.59769909
84,270051224.02263167
122,913802771.3503903
158,303839565.9591548
256,34604034.531549628
283,0.6125022164732684
307,0.6125022164732684
406,388471934.2049787
719,105930515.19699349
744,0.0
833,0.0
859,0.0
885,221491271.18625675
952,0.0026926905817324946
2,2, 1, 2, 0,17, 0.00,60.00,Wednesday
699,-0.2940769396071017
700,6.796818540771156
701,-0.2940769396071017
702,6.796818540771156
703,1.0
704,0.0
705,0.0
10,509476139.1755333
46,63503966.59769909
84,305275296.7212357
122,932761900.7383323
158,343470813.6929576
256,34766360.65691234
283,0.6125022164732684
307,0.6125022164732684
406,398554600.35403916
719,105930515.19699349
744,0.0
833,0.0
859,0.0
885,190736486.6913355
952,0.0026926905817324946
2,2, 1, 2, 0,18, 0.00,60.00,Wednesday
699,-0.2879205478819367
700,6.722124898268902
701,-0.2879205478819367
702,6.722124898268902
703,1.0
704,0.0
705,0.0
10,560385686.8112029
46,63503966.59769909
84,305275296.7212357
122,884271767.5274458
158,343470813.6929576
256,46061359.984492268
283,0.8166696219643579
307,0.8166696219643579
406,417615782.4854218
719,105930515.19699349
744,39614548.307940099
833,0.0
859,0.0
885,123185171.34906651
952,0.0028422972528786138
2,2, 1, 2, 0,19, 0.00,60.00,Wednesday
699,-0.2754602580874527
700,6.575843330573306
701,-0.2754602580874527
702,6.575843330573306
703,1.0
704,0.0
705,0.0
10,553512431.4387581
46,63503966.59769909
84,281792581.588833
122,790505396.760723
158,317049981.87042239
256,62670819.744225908
283,1.1229207302009923
307,1.1229207302009923
406,446057148.7386368
719,105930515.19699349
744,39614548.307940099
833,0.0
859,0.0
885,27398266.151663849
952,0.003066707259597792
2,2, 1, 2, 0,20, 0.00,60.00,Wednesday
699,-0.2703785121523588
700,6.518064083801107
701,-0.2703785121523588
702,6.518064083801107
703,1.0
704,0.0
705,0.0
10,536190915.67063286
46,63503966.59769909
84,258309866.4564302
122,792234979.2025043
158,290629150.0478872
256,68832019.10842848
283,1.2250044329465369
307,1.2250044329465369
406,446057148.7386368
719,105930515.19699349
744,39614548.307940099
833,0.0
859,0.0
885,55548680.41598024
952,0.003141510595170851
2,2, 1, 2, 0,21, 0.00,60.00,Wednesday
699,-0.27184857378557128
700,6.534666749384954
701,-0.27184857378557128
702,6.534666749384954
703,1.0
704,0.0
705,0.0
10,501620341.8814155
46,63503966.59769909
84,234827151.32402749
122,796818005.3923125
158,264208318.22535203
256,57744160.451763439
283,1.0208370274554473
307,1.0208370274554473
406,446057148.7386368
719,105930515.19699349
744,39614548.307940099
833,0.0
859,0.0
885,86552538.42832373
952,0.0029919039240247325
2,2, 1, 2, 0,22, 0.00,60.00,Wednesday
699,-0.2918841381791973
700,6.770030407645706
701,-0.2918841381791973
702,6.770030407645706
703,1.0
704,0.0
705,0.0
10,483292659.9680402
46,63503966.59769909
84,211344436.1916247
122,893562591.0060339
158,237787486.40281678
256,62899193.67071616
283,1.1229207302009923
307,1.1229207302009923
406,446057148.7386368
719,105930515.19699349
744,39614548.307940099
833,0.0
859,0.0
885,209717955.8645804
952,0.003066707259597792
2,2, 1, 2, 0,23, 0.00,60.00,Wednesday
699,-0.3498039396079471
700,7.5459277283483179
701,-0.3498039396079471
702,7.5459277283483179
703,1.0
704,0.0
705,0.0
10,337929476.3182736
46,35281136.12960483
84,105672218.09581235
122,900199103.8158305
158,118893743.20140839
256,51431058.58500577
283,0.9187533247099027
307,0.9187533247099027
406,419179940.4109533
719,105930515.19699349
744,39614548.307940099
833,0.0
859,0.0
885,362125420.2034688
952,0.0029171005884516727
2,2, 1, 2, 0,24, 0.00,60.00,Wednesday
699,-0.4103377852114179
700,8.50933748585237
701,-0.4103377852114179
702,8.50933748585237
703,1.0
704,0.0
705,0.0
10,230827367.23988975
46,21169720.895557714
84,35224072.69860412
122,901746961.3063575
158,39631247.733802799
256,28888510.138176398
283,0.5104185137277236
307,0.5104185137277236
406,383346480.5863825
719,105930515.19699349
744,39614548.307940099
833,0.0
859,0.0
885,478769232.9861722
952,0.002617887246159435
2,3, 1, 3, 0, 1, 0.00,60.00,Thursday
699,-0.45712955895870385
700,9.361531481075716
701,-0.45712955895870385
702,9.361531481075716
703,1.0
704,0.0
705,0.0
10,94609215.24982967
46,10584860.447778857
84,35224072.69860412
122,410226673.77638509
158,39631247.733802799
256,23328653.820903619
283,0.40833481098217896
307,0.40833481098217896
406,370595426.0425823
719,0.0
744,25471628.279999999
833,0.0
859,0.0
885,0.0
952,0.002543077778862273
2,3, 1, 3, 0, 2, 0.00,60.00,Thursday
699,-0.33314741681601359
700,7.308223979909911
701,-0.33314741681601359
702,7.308223979909911
703,0.0
704,0.0
705,0.0
10,61013920.09025108
46,11769285.075227144
84,23482715.132402749
122,26420831.8225352
158,26420831.8225352
256,290291.6026211937
283,0.0
307,0.0
406,0.0
719,0.0
744,25471628.279999999
833,0.0
859,0.0
885,0.0
952,0.0
2,3, 1, 3, 0, 3, 0.00,60.00,Thursday
699,-0.3213756779359048
700,7.147334018691424
701,-0.3213756779359048
702,7.147334018691424
703,0.0
704,0.0
705,0.0
10,72837525.92808388
46,11769285.075227144
84,35224072.69860412
122,52869793.105055999
158,39631247.733802799
256,372539.8742526124
283,0.0
307,0.0
406,13238545.371253202
719,0.0
744,25471628.279999999
833,0.0
859,0.0
885,0.0
952,0.0
2,3, 1, 3, 0, 4, 0.00,60.00,Thursday
699,-0.3158022591317362
700,7.073208668795843
701,-0.3158022591317362
702,7.073208668795843
703,0.0
704,0.0
705,0.0
10,61096100.84644526
46,11769285.075227144
84,23482715.132402749
122,26420831.8225352
158,26420831.8225352
256,372472.35881537306
283,0.0
307,0.0
406,0.0
719,0.0
744,25471628.279999999
833,0.0
859,0.0
885,0.0
952,0.0
2,3, 1, 3, 0, 5, 0.00,60.00,Thursday
699,-0.3369998360425991
700,7.362153816565026
701,-0.3369998360425991
702,7.362153816565026
703,0.0
704,0.0
705,0.0
10,96320105.74387087
46,11769285.075227144
84,58706787.83100687
122,66052079.556338008
158,66052079.556338008
256,372404.55763686509
283,0.0
307,0.0
406,0.0
719,0.0
744,25471628.279999999
833,0.0
859,0.0
885,0.0
952,0.0
2,3, 1, 3, 0, 6, 0.00,60.00,Thursday
699,-0.28388037153276649
700,6.673976320519742
701,-0.28388037153276649
702,6.673976320519742
703,1.0
704,0.0
705,0.0
10,180851830.08675189
46,14111415.234047126
84,140896290.7944165
122,158524990.93521119
158,158524990.93521119
256,372495.77828823777
283,0.0
307,0.0
406,0.0
719,0.0
744,25471628.279999999
833,0.0
859,0.0
885,0.0
952,0.0
2,3, 1, 3, 0, 7, 0.00,60.00,Thursday
699,-0.06246991074894244
700,5.080797621367395
701,-0.06246991074894244
702,5.080797621367395
703,1.0
704,0.0
705,0.0
10,220661278.9752992
46,28222830.468094253
84,152637648.36061786
122,527881133.4070029
158,171735406.8464788
256,186251.8361787411
283,0.30625110823663417
307,0.30625110823663417
406,356145726.5605241
719,0.0
744,39614548.307940099
833,0.0
859,0.0
885,0.0
952,0.002468273904411392
2,3, 1, 3, 0, 8, 0.00,60.00,Thursday
699,0.10921253120279408
700,5.247034075793593
701,0.10921253120279408
702,5.247034075793593
703,1.0
704,0.0
705,0.0
10,418710572.82730749
46,28222830.468094253
84,176120363.4930206
122,1040656146.2058436
158,198156238.66901399
256,68822315.35811758
283,1.225004432946537
307,1.225004432946537
406,446057148.73863676
719,105930515.19699349
744,39614548.307940099
833,0.0
859,0.0
885,396442758.79819288
952,0.0031415021050561068
2,3, 1, 3, 0, 9, 0.00,60.00,Thursday
699,-0.272922254556255
700,6.546850290011747
701,-0.272922254556255
702,6.546850290011747
703,1.0
704,0.0
705,0.0
10,425897824.05624529
46,42334245.70214138
84,211344436.1916247
122,1102383879.7867747
158,237787486.40281678
256,66288626.962418969
283,1.1229207302009923
307,1.1229207302009923
406,446057148.7386368
719,105930515.19699349
744,0.0
833,0.0
859,0.0
885,418539244.64532116
952,0.003066698971643395
2,3, 1, 3, 0,10, 0.00,60.00,Thursday
699,-0.36716979947834968
700,7.806318646840936
701,-0.36716979947834968
702,7.806318646840936
703,1.0
704,0.0
705,0.0
10,446682633.0667628
46,42334245.70214138
84,246568508.89022885
122,1119596593.7605174
158,277418734.13661959
256,51849363.274482008
283,0.9187533247099027
307,0.9187533247099027
406,432212837.17822179
719,105930515.19699349
744,0.0
833,0.0
859,0.0
885,409965022.44567617
952,0.0029170927048179898
2,3, 1, 3, 0,11, 0.00,60.00,Thursday
699,-0.36299697669585687
700,7.742577494258768
701,-0.36299697669585687
702,7.742577494258768
703,1.0
704,0.0
705,0.0
10,520780144.75320866
46,63503966.59769909
84,305275296.7212357
122,1162672902.5300997
158,343470813.6929576
256,46070366.23443805
283,0.8166696219643579
307,0.8166696219643579
406,411869614.5376185
719,105930515.19699349
744,0.0
833,0.0
859,0.0
885,407332474.29952368
952,0.0028422895714052874
2,3, 1, 3, 0,12, 0.00,60.00,Thursday
699,-0.34162414302633167
700,7.427721581766221
701,-0.34162414302633167
702,7.427721581766221
703,1.0
704,0.0
705,0.0
10,562108452.0190275
46,63503966.59769909
84,340499369.4198398
122,1076401763.8195439
158,383102061.4267604
256,52174600.801578078
283,0.9187533247099027
307,0.9187533247099027
406,424016237.0039416
719,105930515.19699349
744,0.0
833,0.0
859,0.0
885,269283465.3888419
952,0.0029170927048179898
2,3, 1, 3, 0,13, 0.00,60.00,Thursday
699,-0.32403357315870526
700,7.183147084349244
701,-0.32403357315870526
702,7.183147084349244
703,1.0
704,0.0
705,0.0
10,532593790.5152595
46,63503966.59769909
84,317016654.2874371
122,939374317.3141803
158,356681229.6042252
256,46142654.43028754
283,0.8166696219643579
307,0.8166696219643579
406,417649422.7856413
719,105930515.19699349
744,0.0
833,0.0
859,0.0
885,165043664.92431364
952,0.0028422895714052874
2,3, 1, 3, 0,14, 0.00,60.00,Thursday
699,-0.3240882755206569
700,7.1838873013467439
701,-0.3240882755206569
702,7.1838873013467439
703,1.0
704,0.0
705,0.0
10,503428960.03709658
46,63503966.59769909
84,293533939.1550343
122,957630795.709222
158,330260397.78169
256,40460539.084602128
283,0.7145859192188131
307,0.7145859192188131
406,402309454.0080914
719,105930515.19699349
744,0.0
833,0.0
859,0.0
885,225060943.9194406
952,0.0027674864379925846
2,3, 1, 3, 0,15, 0.00,60.00,Thursday
699,-0.33689310750187209
700,7.360651242004096
701,-0.33689310750187209
702,7.360651242004096
703,1.0
704,0.0
705,0.0
10,474160754.2314669
46,63503966.59769909
84,270051224.02263167
122,1043859146.8084657
158,303839565.9591548
256,34675048.41145
283,0.6125022164732684
307,0.6125022164732684
406,386109901.8199036
719,105930515.19699349
744,0.0
833,0.0
859,0.0
885,353909679.02940729
952,0.0026926833045798819
2,3, 1, 3, 0,16, 0.00,60.00,Thursday
699,-0.36492268584128725
700,7.771901106655733
701,-0.36492268584128725
702,7.771901106655733
703,1.0
704,0.0
705,0.0
10,474141340.09643337
46,63503966.59769909
84,270051224.02263167
122,1140915812.2445648
158,303839565.9591548
256,34655634.276416499
283,0.6125022164732684
307,0.6125022164732684
406,401074437.0479483
719,105930515.19699349
744,0.0
833,0.0
859,0.0
885,436001809.23746177
952,0.0026926833045798819
2,3, 1, 3, 0,17, 0.00,60.00,Thursday
699,-0.3694053831545358
700,7.840773139465583