Program Version,EnergyPlus, Version 9.1.0-fafb9d5652, YMD=2020.03.26 13:34
1,5,Environment Title[],Latitude[deg],Longitude[deg],Time Zone[],Elevation[m]
2,8,Day of Simulation[],Month[],Day of Month[],DST Indicator[1=yes 0=no],Hour[],StartMinute[],EndMinute[],DayType
3,5,Cumulative Day of Simulation[],Month[],Day of Month[],DST Indicator[1=yes 0=no],DayType  ! When Daily Report Variables Requested
4,2,Cumulative Days of Simulation[],Month[]  ! When Monthly Report Variables Requested
5,1,Cumulative Days of Simulation[] ! When Run Period Report Variables Requested
6,1,Calendar Year of Simulation[] ! When Annual Report Variables Requested
7,9,Environment,Site Outdoor Air Drybulb Temperature [C] !Monthly [Value,Min,Day,Hour,Minute,Max,Day,Hour,Minute]
8,1,Environment,Site Outdoor Air Wetbulb Temperature [C] !TimeStep
515,1,BUILDING STORY 1 THERMALZONE,Zone Air Temperature [C] !Hourly
516,7,BUILDING STORY 1 THERMALZONE,Zone Air Relative Humidity [%] !Daily [Value,Min,Hour,Minute,Max,Hour,Minute]
555,1,BUILDING STORY 2 THERMALZONE,Zone Air Temperature [C] !Hourly
556,7,BUILDING STORY 2 THERMALZONE,Zone Air Relative Humidity [%] !Daily [Value,Min,Hour,Minute,Max,Hour,Minute]
595,1,BUILDING STORY 3 THERMALZONE,Zone Air Temperature [C] !Hourly
596,7,BUILDING STORY 3 THERMALZONE,Zone Air Relative Humidity [%] !Daily [Value,Min,Hour,Minute,Max,Hour,Minute]
10,1,Electricity:Facility [J] !TimeStep
269,1,Gas:Facility [J] !TimeStep
End of Data Dictionary
1,BUFFALO NIAGARA INTL AP ANN CLG .4% CONDNS DB=>MWB 1,  42.93, -78.73,  -5.00, 215.00
2,1, 7,21, 0, 1, 0.00,60.00,SummerDesignDay
8,19.36840579326866
10,4604205570.783367
269,0.0
2,1, 7,21, 0, 1, 0.00,60.00,SummerDesignDay
515,21.836104387995669
555,20.76840452649418
595,19.710425022244914
2,1, 7,21, 0, 2, 0.00,60.00,SummerDesignDay
8,19.25226217922265
10,4593248035.165998
269,0.0
2,1, 7,21, 0, 2, 0.00,60.00,SummerDesignDay
515,21.78076274757338
555,20.7412850306975
595,19.66691797341288
2,1, 7,21, 0, 3, 0.00,60.00,SummerDesignDay
8,19.164819553782637
10,4584791530.133929
269,0.0
2,1, 7,21, 0, 3, 0.00,60.00,SummerDesignDay
515,21.732552795774823
555,20.716484819477473
595,19.62669417308612
2,1, 7,21, 0, 4, 0.00,60.00,SummerDesignDay
8,19.0770792448193
10,4576508434.36357
269,0.0
2,1, 7,21, 0, 4, 0.00,60.00,SummerDesignDay
515,21.687966652960247
555,20.692924731637218
595,19.588358131727163
2,1, 7,21, 0, 5, 0.00,60.00,SummerDesignDay
8,19.018427637799467
10,4570554008.620965
269,0.0
2,1, 7,21, 0, 5, 0.00,60.00,SummerDesignDay
515,21.648453572409009
555,20.670911330712536
595,19.552422977545367
2,1, 7,21, 0, 6, 0.00,60.00,SummerDesignDay
8,19.0770792448193
10,4334019285.306395
269,0.0
2,1, 7,21, 0, 6, 0.00,60.00,SummerDesignDay
515,21.688718054598764
555,20.70227272075555
595,19.58000575130272
2,1, 7,21, 0, 7, 0.00,60.00,SummerDesignDay
8,19.281346189070228
10,4350902788.880738
269,0.0
2,1, 7,21, 0, 7, 0.00,60.00,SummerDesignDay
515,21.83699066787893
555,20.79750918483234
595,19.690911268558
2,1, 7,21, 0, 8, 0.00,60.00,SummerDesignDay
8,19.770887505670989
10,4394043376.00794
269,0.0
2,1, 7,21, 0, 8, 0.00,60.00,SummerDesignDay
515,22.020809620677306
555,20.89478366184405
595,19.816299175913604
2,1, 7,21, 0, 9, 0.00,60.00,SummerDesignDay
8,20.30732185289352
10,4446870897.920174
269,0.0
2,1, 7,21, 0, 9, 0.00,60.00,SummerDesignDay
515,22.175805917141113
555,20.964238996744269
595,19.91309400489017
2,1, 7,21, 0,10, 0.00,60.00,SummerDesignDay
8,20.778037156782458
10,4500883610.6405529
269,0.0
2,1, 7,21, 0,10, 0.00,60.00,SummerDesignDay
515,22.27949424634841
555,20.99921563545762
595,19.970950484668927
2,1, 7,21, 0,11, 0.00,60.00,SummerDesignDay
8,21.186337137460165
10,4548754882.480034
269,0.0
2,1, 7,21, 0,11, 0.00,60.00,SummerDesignDay
515,22.32613785729157
555,20.99691083716855
595,19.985726908899247
2,1, 7,21, 0,12, 0.00,60.00,SummerDesignDay
8,21.45495938709981
10,4580382664.393356
269,0.0
2,1, 7,21, 0,12, 0.00,60.00,SummerDesignDay
515,22.330126440102704
555,20.971979347679164
595,19.97311288033501
2,1, 7,21, 0,13, 0.00,60.00,SummerDesignDay
8,21.667839996742449
10,4604765817.468643
269,344161101.3926459
2,1, 7,21, 0,13, 0.00,60.00,SummerDesignDay
515,22.369870062823986
555,20.97928435153827
595,19.994639204071694
2,1, 7,21, 0,14, 0.00,60.00,SummerDesignDay
8,21.799990419629109
10,4621430390.409007
269,0.0
2,1, 7,21, 0,14, 0.00,60.00,SummerDesignDay
515,22.468349266660039
555,21.029684655299009
595,20.06820612212864
2,1, 7,21, 0,15, 0.00,60.00,SummerDesignDay
8,21.799990419629109
10,4624654120.502174
269,258761746.04215766
2,1, 7,21, 0,15, 0.00,60.00,SummerDesignDay
515,22.573608165607998
555,21.08947427284831
595,20.154103737213963
2,1, 7,21, 0,16, 0.00,60.00,SummerDesignDay
8,21.641326796728476
10,4609524783.182476
269,86690207.6399387
2,1, 7,21, 0,16, 0.00,60.00,SummerDesignDay
515,22.64460296130263
555,21.137834437620897
595,20.220984806848486
2,1, 7,21, 0,17, 0.00,60.00,SummerDesignDay
8,21.42822317147698
10,4587501601.764466
269,86171918.4728874
2,1, 7,21, 0,17, 0.00,60.00,SummerDesignDay
515,22.672350032753387
555,21.16778665433787
595,20.258488971488423
2,1, 7,21, 0,18, 0.00,60.00,SummerDesignDay
8,21.15931786227956
10,4558450169.61946
269,256738311.5311318
2,1, 7,21, 0,18, 0.00,60.00,SummerDesignDay
515,22.641369522824414
555,21.16468197074769
595,20.252593463171224
2,1, 7,21, 0,19, 0.00,60.00,SummerDesignDay
8,20.750583661392644
10,4513059707.012093
269,0.0
2,1, 7,21, 0,19, 0.00,60.00,SummerDesignDay
515,22.517024219560957
555,21.107572894873884
595,20.177620434949124
2,1, 7,21, 0,20, 0.00,60.00,SummerDesignDay
8,20.446661088459409
10,4477273022.166232
269,86027334.44877842
2,1, 7,21, 0,20, 0.00,60.00,SummerDesignDay
515,22.308741343709188
555,20.993537632081929
595,20.030215866024159
2,1, 7,21, 0,21, 0.00,60.00,SummerDesignDay
8,20.19530361990708
10,4796862278.383242
269,254786766.39176537
2,1, 7,21, 0,21, 0.00,60.00,SummerDesignDay
515,22.15347403399756
555,20.920796272736998
595,19.925607365285683
2,1, 7,21, 0,22, 0.00,60.00,SummerDesignDay
8,19.941485234887624
10,4769754865.179498
269,0.0
2,1, 7,21, 0,22, 0.00,60.00,SummerDesignDay
515,22.052110779143314
555,20.876392242925776
595,19.861363076266863
2,1, 7,21, 0,23, 0.00,60.00,SummerDesignDay
8,19.7423381019073
10,4750632912.010897
269,0.0
2,1, 7,21, 0,23, 0.00,60.00,SummerDesignDay
515,21.972192414573447
555,20.838573688193166
595,19.807814127132397
2,1, 7,21, 0,24, 0.00,60.00,SummerDesignDay
8,19.54165603023991
10,4732269100.524708
269,0.0
2,1, 7,21, 0,24, 0.00,60.00,SummerDesignDay
515,21.900571902868636
555,20.804186321756299
595,19.75760616787962
3,1, 7,21, 0,SummerDesignDay
516,57.99555225388986,56.18051182691125,17,60,59.802237917057237, 5,60
556,58.92697631315823,57.95177957733456,17,60,59.9142119986041, 5,60
596,62.38957710783671,60.94143118420029,17,60,63.830159523891939, 5,60
4,1, 7
7,25.312875000000003,21.0,21, 5,60,30.3,21,14,60
1,BUFFALO NIAGARA INTL AP ANN CLG .4% CONDNS WB=>MDB 1,  42.93, -78.73,  -5.00, 215.00
2,1, 7,21, 0, 1, 0.00,60.00,SummerDesignDay
8,19.615996954992807
10,4623851735.293032
269,0.0
2,1, 7,21, 0, 1, 0.00,60.00,SummerDesignDay
515,21.615844004756189
555,20.674953087631054
595,19.531654110179049
2,1, 7,21, 0, 2, 0.00,60.00,SummerDesignDay
8,19.243988037109376
10,4590821851.011495
269,0.0
2,1, 7,21, 0, 2, 0.00,60.00,SummerDesignDay
515,21.560869896404055
555,20.64789706756865
595,19.488234460541553
2,1, 7,21, 0, 3, 0.00,60.00,SummerDesignDay
8,18.96499632356402
10,4566476756.831437
269,0.0
2,1, 7,21, 0, 3, 0.00,60.00,SummerDesignDay
515,21.512871531508876
555,20.62313876798361
595,19.448079391049914
2,1, 7,21, 0, 4, 0.00,60.00,SummerDesignDay
8,18.685989379882814
10,4543219829.263326
269,0.0
2,1, 7,21, 0, 4, 0.00,60.00,SummerDesignDay
515,21.46834695837492
555,20.599622989127647
595,19.40982633312756
2,1, 7,21, 0, 5, 0.00,60.00,SummerDesignDay
8,18.49999810986028
10,4527247437.469829
269,0.0
2,1, 7,21, 0, 5, 0.00,60.00,SummerDesignDay
515,21.428832573703774
555,20.57764168446105
595,19.373929337810908
2,1, 7,21, 0, 6, 0.00,60.00,SummerDesignDay
8,18.685989379882814
10,4298917184.081188
269,0.0
2,1, 7,21, 0, 6, 0.00,60.00,SummerDesignDay
515,21.467818951878454
555,20.608237603085504
595,19.40089988173809
2,1, 7,21, 0, 7, 0.00,60.00,SummerDesignDay
8,19.336990356445314
10,4348920628.822652
269,0.0
2,1, 7,21, 0, 7, 0.00,60.00,SummerDesignDay
515,21.615056046350497
555,20.702711067893345
595,19.51118613044155
2,1, 7,21, 0, 8, 0.00,60.00,SummerDesignDay
8,20.917992548817627
10,4499361389.038458
269,0.0
2,1, 7,21, 0, 8, 0.00,60.00,SummerDesignDay
515,21.798765256023779
555,20.79968405929524
595,19.63628700374954
2,1, 7,21, 0, 9, 0.00,60.00,SummerDesignDay
8,22.420023807696297
10,4688677605.003535
269,0.0
2,1, 7,21, 0, 9, 0.00,60.00,SummerDesignDay
515,21.953857319792904
555,20.869023589936977
595,19.732921922898617
2,1, 7,21, 0,10, 0.00,60.00,SummerDesignDay
8,22.854695006230427
10,4759212086.985393
269,0.0
2,1, 7,21, 0,10, 0.00,60.00,SummerDesignDay
515,22.05744096077663
555,20.903812112269344
595,19.790556450466125
2,1, 7,21, 0,11, 0.00,60.00,SummerDesignDay
8,23.232104587122938
10,4816983600.91488
269,0.0
2,1, 7,21, 0,11, 0.00,60.00,SummerDesignDay
515,22.10423726201025
555,20.901484881060005
595,19.80526490983635
2,1, 7,21, 0,12, 0.00,60.00,SummerDesignDay
8,23.480593542408348
10,4853550133.55033
269,0.0
2,1, 7,21, 0,12, 0.00,60.00,SummerDesignDay
515,22.108738172765994
555,20.87672318027203
595,19.792803038939249
2,1, 7,21, 0,13, 0.00,60.00,SummerDesignDay
8,23.677626430315248
10,4881567387.458569
269,344161101.3926459
2,1, 7,21, 0,13, 0.00,60.00,SummerDesignDay
515,22.149287791856815
555,20.884050147297346
595,19.81471728601887
2,1, 7,21, 0,14, 0.00,60.00,SummerDesignDay
8,23.799986320868798
10,4900825856.72872
269,0.0
2,1, 7,21, 0,14, 0.00,60.00,SummerDesignDay
515,22.24763112264872
555,20.934182883984194
595,19.88798406176429
2,1, 7,21, 0,15, 0.00,60.00,SummerDesignDay
8,23.799986320868798
10,4904424212.327126
269,258761746.04215766
2,1, 7,21, 0,15, 0.00,60.00,SummerDesignDay
515,22.352656229066118
555,20.993827290382546
595,19.973604129231043
2,1, 7,21, 0,16, 0.00,60.00,SummerDesignDay
8,23.653081835774505
10,4886623929.225005
269,86690207.6399387
2,1, 7,21, 0,16, 0.00,60.00,SummerDesignDay
515,22.42352680774148
555,21.042142006666059
595,20.040372234382724
2,1, 7,21, 0,17, 0.00,60.00,SummerDesignDay
8,23.4558543827806
10,4860833999.3941349
269,86171918.4728874
2,1, 7,21, 0,17, 0.00,60.00,SummerDesignDay
515,22.451130700308075
555,21.07207387764257
595,20.077806011107318
2,1, 7,21, 0,18, 0.00,60.00,SummerDesignDay
8,23.207119318496696
10,4826901890.812382
269,256738311.5311318
2,1, 7,21, 0,18, 0.00,60.00,SummerDesignDay
515,22.420034126669266
555,21.06903211672234
595,20.071945221429055
2,1, 7,21, 0,19, 0.00,60.00,SummerDesignDay
8,22.82933132300861
10,4773944357.190593
269,0.0
2,1, 7,21, 0,19, 0.00,60.00,SummerDesignDay
515,22.295669407730715
555,21.01219211677644
595,19.997209705437514
2,1, 7,21, 0,20, 0.00,60.00,SummerDesignDay
8,22.548645905899027
10,4732386274.494333
269,86027334.44877842
2,1, 7,21, 0,20, 0.00,60.00,SummerDesignDay
515,22.08797936132743
555,20.898834149278114
595,19.85042443309368
2,1, 7,21, 0,21, 0.00,60.00,SummerDesignDay
8,22.312987690310977
10,5046379503.892485
269,254786766.39176537
2,1, 7,21, 0,21, 0.00,60.00,SummerDesignDay
515,21.933073752549086
555,20.82648889251496
595,19.74626220711836
2,1, 7,21, 0,22, 0.00,60.00,SummerDesignDay
8,21.475995587251039
10,4939560939.59395
269,0.0
2,1, 7,21, 0,22, 0.00,60.00,SummerDesignDay
515,21.8315145662433
555,20.78211193018251
595,19.682178663821884
2,1, 7,21, 0,23, 0.00,60.00,SummerDesignDay
8,20.824995071347869
10,4860498459.568939
269,0.0
2,1, 7,21, 0,23, 0.00,60.00,SummerDesignDay
515,21.751571999692698
555,20.744358572740969
595,19.62875358779442
2,1, 7,21, 0,24, 0.00,60.00,SummerDesignDay
8,20.173995840857065
10,4787166205.087859
269,0.0
2,1, 7,21, 0,24, 0.00,60.00,SummerDesignDay
515,21.680115033085256
555,20.710084242856646
595,19.578667499729105
3,1, 7,21, 0,SummerDesignDay
516,60.3375919488459,59.05666608192066,17,60,61.13197326955482,22,60
556,59.6816896690731,58.833113438386998,17,60,60.37652922643719, 5,60
596,63.53325265085237,62.21158880800096,17,60,64.6609352851321, 5,60
4,1, 7
7,22.812875000000003,18.5,21, 5,60,27.8,21,14,60
1,BUFFALO NIAGARA INTL AP ANN HTG 99.6% CONDNS DB 1,  42.93, -78.73,  -5.00, 215.00
2,1, 1,21, 0, 1, 0.00,60.00,WinterDesignDay
8,-16.3
10,1118280268.2984889
269,7465757297.882542
2,1, 1,21, 0, 1, 0.00,60.00,WinterDesignDay
515,15.56357868835478
555,19.95476919696911
595,15.562589515053011
2,1, 1,21, 0, 2, 0.00,60.00,WinterDesignDay
8,-16.3
10,1110419961.0879989
269,5860018581.439922
2,1, 1,21, 0, 2, 0.00,60.00,WinterDesignDay
515,15.560244994472646
555,16.352368180794647
595,15.559232382205348
2,1, 1,21, 0, 3, 0.00,60.00,WinterDesignDay
8,-16.3
10,1110883648.970295
269,6176340963.830427
2,1, 1,21, 0, 3, 0.00,60.00,WinterDesignDay
515,15.561368591003088
555,15.868418527581247
595,15.559207026409555
2,1, 1,21, 0, 4, 0.00,60.00,WinterDesignDay
8,-16.3
10,1111155068.7891012
269,6297543029.503651
2,1, 1,21, 0, 4, 0.00,60.00,WinterDesignDay
515,15.559460455704907
555,15.639560195388354
595,15.558818177358525
2,1, 1,21, 0, 5, 0.00,60.00,WinterDesignDay
8,-16.3
10,1111388547.6914149
269,6486551125.070714
2,1, 1,21, 0, 5, 0.00,60.00,WinterDesignDay
515,15.560791652038608
555,15.586836098327313
595,15.554997163864068
2,1, 1,21, 0, 6, 0.00,60.00,WinterDesignDay
8,-16.3
10,1111560369.8154736
269,6616536467.497573
2,1, 1,21, 0, 6, 0.00,60.00,WinterDesignDay
515,15.560498221941949
555,15.567939861704615
595,15.556809203272343
2,1, 1,21, 0, 7, 0.00,60.00,WinterDesignDay
8,-16.3
10,1223958065.1611679
269,6732492222.4761099
2,1, 1,21, 0, 7, 0.00,60.00,WinterDesignDay
515,15.559036658762502
555,15.562332211882307
595,15.558159649225896
2,1, 1,21, 0, 8, 0.00,60.00,WinterDesignDay
8,-16.3
10,1224102357.5603548
269,6832027465.025501
2,1, 1,21, 0, 8, 0.00,60.00,WinterDesignDay
515,15.562511831887369
555,15.55837370817853
595,15.555224418038485
2,1, 1,21, 0, 9, 0.00,60.00,WinterDesignDay
8,-16.3
10,882059269.0231112
269,10262541711.23936
2,1, 1,21, 0, 9, 0.00,60.00,WinterDesignDay
515,18.27469545571192
555,18.106840811211339
595,18.23409656598554
2,1, 1,21, 0,10, 0.00,60.00,WinterDesignDay
8,-16.3
10,899584251.499925
269,13001506435.678174
2,1, 1,21, 0,10, 0.00,60.00,WinterDesignDay
515,20.911918314602855
555,19.18180354072592
595,20.91198771852435
2,1, 1,21, 0,11, 0.00,60.00,WinterDesignDay
8,-16.3
10,891756128.2136148
269,11720708278.852108
2,1, 1,21, 0,11, 0.00,60.00,WinterDesignDay
515,21.113114580348854
555,19.351323007164895
595,21.105464387845065
2,1, 1,21, 0,12, 0.00,60.00,WinterDesignDay
8,-16.3
10,890428248.3829197
269,11630385327.377789
2,1, 1,21, 0,12, 0.00,60.00,WinterDesignDay
515,21.104369168548783
555,19.411752146582786
595,21.106059012926356
2,1, 1,21, 0,13, 0.00,60.00,WinterDesignDay
8,-16.3
10,889120869.0989423
269,11582763135.083046
2,1, 1,21, 0,13, 0.00,60.00,WinterDesignDay
515,21.113045323484707
555,19.46784631010994
595,21.100467626850589
2,1, 1,21, 0,14, 0.00,60.00,WinterDesignDay
8,-16.3
10,888388679.2732166
269,11291622065.442646
2,1, 1,21, 0,14, 0.00,60.00,WinterDesignDay
515,21.104518730339057
555,19.530367568728996
595,21.113695908288784
2,1, 1,21, 0,15, 0.00,60.00,WinterDesignDay
8,-16.3
10,887750363.0644254
269,11347315932.05949
2,1, 1,21, 0,15, 0.00,60.00,WinterDesignDay
515,21.105535381514366
555,19.56793757341511
595,21.11579588168054
2,1, 1,21, 0,16, 0.00,60.00,WinterDesignDay
8,-16.3
10,887268204.6992716
269,11173466813.642449
2,1, 1,21, 0,16, 0.00,60.00,WinterDesignDay
515,21.111454875524417
555,19.615712304972655
595,21.11811929509956
2,1, 1,21, 0,17, 0.00,60.00,WinterDesignDay
8,-16.3
10,886786170.3025904
269,11078859193.154742
2,1, 1,21, 0,17, 0.00,60.00,WinterDesignDay
515,21.109334673094709
555,19.668109139382833
595,21.11014974937772
2,1, 1,21, 0,18, 0.00,60.00,WinterDesignDay
8,-16.3
10,1238229692.5938144
269,10906903309.225464
2,1, 1,21, 0,18, 0.00,60.00,WinterDesignDay
515,21.10714005440267
555,19.695557010658594
595,21.10720434821174
2,1, 1,21, 0,19, 0.00,60.00,WinterDesignDay
8,-16.3
10,1237932795.0942903
269,11019016876.156002
2,1, 1,21, 0,19, 0.00,60.00,WinterDesignDay
515,21.11070206523017
555,19.736123041198863
595,21.10936591414886
2,1, 1,21, 0,20, 0.00,60.00,WinterDesignDay
8,-16.3
10,1237635968.489032
269,10698768735.800574
2,1, 1,21, 0,20, 0.00,60.00,WinterDesignDay
515,21.110425628015038
555,19.782759356485433
595,21.106023581161879
2,1, 1,21, 0,21, 0.00,60.00,WinterDesignDay
8,-16.3
10,1237370519.9709025
269,10724168979.74452
2,1, 1,21, 0,21, 0.00,60.00,WinterDesignDay
515,21.115915332094369
555,19.807220485585707
595,21.104755288994466
2,1, 1,21, 0,22, 0.00,60.00,WinterDesignDay
8,-16.3
10,1228432228.162911
269,6379410494.180369
2,1, 1,21, 0,22, 0.00,60.00,WinterDesignDay
515,16.83957724340292
555,19.85246613098137
595,16.689759596107558
2,1, 1,21, 0,23, 0.00,60.00,WinterDesignDay
8,-16.3
10,1229467779.0512257
269,6735392141.6038
2,1, 1,21, 0,23, 0.00,60.00,WinterDesignDay
515,15.782811867745713
555,19.88817826583523
595,15.744761862848792
2,1, 1,21, 0,24, 0.00,60.00,WinterDesignDay
8,-16.3
10,1230210982.754324
269,7205886293.348773
2,1, 1,21, 0,24, 0.00,60.00,WinterDesignDay
515,15.562871172464562
555,19.90735184570961
595,15.558539269723319
3,1, 1,21, 0,WinterDesignDay
516,6.98626514235762,5.848292428634852,21,60,8.28856366536128, 2,54
556,6.9538604253997919,6.282573861033751, 1,60,8.288816082076222, 8,60
596,6.991498864306745,5.847500913518306,16,60,8.290610871669827, 5,60
4,1, 1
7,-16.300000000000009,-16.3,21, 1,60,-16.3,21, 1,60
End of Data
 Number of Records Written=         444
