Program Version,EnergyPlus, Version 9.1.0-fafb9d5652, YMD=2020.03.26 13:28
1,5,Environment Title[],Latitude[deg],Longitude[deg],Time Zone[],Elevation[m]
2,8,Day of Simulation[],Month[],Day of Month[],DST Indicator[1=yes 0=no],Hour[],StartMinute[],EndMinute[],DayType
3,5,Cumulative Day of Simulation[],Month[],Day of Month[],DST Indicator[1=yes 0=no],DayType  ! When Daily Report Variables Requested
4,2,Cumulative Days of Simulation[],Month[]  ! When Monthly Report Variables Requested
5,1,Cumulative Days of Simulation[] ! When Run Period Report Variables Requested
6,1,Calendar Year of Simulation[] ! When Annual Report Variables Requested
7,9,Environment,Site Outdoor Air Drybulb Temperature [C] !Monthly [Value,Min,Day,Hour,Minute,Max,Day,Hour,Minute]
8,1,Environment,Site Outdoor Air Wetbulb Temperature [C] !TimeStep
545,1,BUILDING STORY 1 THERMALZONE,Zone Air Temperature [C] !Hourly
546,7,BUILDING STORY 1 THERMALZONE,Zone Air Relative Humidity [%] !Daily [Value,Min,Hour,Minute,Max,Hour,Minute]
11,1,Electricity:Facility [J] !TimeStep
123,1,Gas:Facility [J] !TimeStep
End of Data Dictionary
1,BUFFALO NIAGARA INTL AP ANN CLG .4% CONDNS DB=>MWB 1,  42.93, -78.73,  -5.00, 215.00
2,1, 7,21, 0, 1, 0.00,60.00,SummerDesignDay
8,19.36840579326866
11,217396943.49362404
123,269330677.9965117
2,1, 7,21, 0, 1, 0.00,60.00,SummerDesignDay
545,29.202093819033114
2,1, 7,21, 0, 2, 0.00,60.00,SummerDesignDay
8,19.25226217922265
11,211814831.2119677
123,156035099.1748681
2,1, 7,21, 0, 2, 0.00,60.00,SummerDesignDay
545,29.807860586673536
2,1, 7,21, 0, 3, 0.00,60.00,SummerDesignDay
8,19.164819553782637
11,212849540.3297252
123,151167626.95884983
2,1, 7,21, 0, 3, 0.00,60.00,SummerDesignDay
545,29.94419559642183
2,1, 7,21, 0, 4, 0.00,60.00,SummerDesignDay
8,19.0770792448193
11,215581811.44440619
123,151167626.95884983
2,1, 7,21, 0, 4, 0.00,60.00,SummerDesignDay
545,29.957684853129494
2,1, 7,21, 0, 5, 0.00,60.00,SummerDesignDay
8,19.018427637799467
11,216195504.90679807
123,151167626.95884983
2,1, 7,21, 0, 5, 0.00,60.00,SummerDesignDay
545,29.965388183761776
2,1, 7,21, 0, 6, 0.00,60.00,SummerDesignDay
8,19.0770792448193
11,264007678.84188424
123,151167626.95884983
2,1, 7,21, 0, 6, 0.00,60.00,SummerDesignDay
545,26.375751648124099
2,1, 7,21, 0, 7, 0.00,60.00,SummerDesignDay
8,19.281346189070228
11,314644498.58807596
123,275157087.67803117
2,1, 7,21, 0, 7, 0.00,60.00,SummerDesignDay
545,24.260371824503829
2,1, 7,21, 0, 8, 0.00,60.00,SummerDesignDay
8,19.770887505670989
11,340413964.58212909
123,300503626.76055839
2,1, 7,21, 0, 8, 0.00,60.00,SummerDesignDay
545,23.97823647623944
2,1, 7,21, 0, 9, 0.00,60.00,SummerDesignDay
8,20.30732185289352
11,334147184.18210306
123,299713326.49445369
2,1, 7,21, 0, 9, 0.00,60.00,SummerDesignDay
545,23.975400743094164
2,1, 7,21, 0,10, 0.00,60.00,SummerDesignDay
8,20.778037156782458
11,337956913.21957
123,291151060.1689005
2,1, 7,21, 0,10, 0.00,60.00,SummerDesignDay
545,23.973484982392866
2,1, 7,21, 0,11, 0.00,60.00,SummerDesignDay
8,21.186337137460165
11,355563515.9136714
123,290062246.5886142
2,1, 7,21, 0,11, 0.00,60.00,SummerDesignDay
545,23.971938002372313
2,1, 7,21, 0,12, 0.00,60.00,SummerDesignDay
8,21.45495938709981
11,362377822.9330097
123,291154843.69893297
2,1, 7,21, 0,12, 0.00,60.00,SummerDesignDay
545,23.971559698896056
2,1, 7,21, 0,13, 0.00,60.00,SummerDesignDay
8,21.667839996742449
11,364209907.38067117
123,290066265.0083451
2,1, 7,21, 0,13, 0.00,60.00,SummerDesignDay
545,23.971524035716589
2,1, 7,21, 0,14, 0.00,60.00,SummerDesignDay
8,21.799990419629109
11,364832326.79688146
123,281677057.17274966
2,1, 7,21, 0,14, 0.00,60.00,SummerDesignDay
545,23.971461076841398
2,1, 7,21, 0,15, 0.00,60.00,SummerDesignDay
8,21.799990419629109
11,363024815.50651636
123,282790161.99262717
2,1, 7,21, 0,15, 0.00,60.00,SummerDesignDay
545,23.971426419453374
2,1, 7,21, 0,16, 0.00,60.00,SummerDesignDay
8,21.641326796728476
11,359382868.2129475
123,284197028.89431586
2,1, 7,21, 0,16, 0.00,60.00,SummerDesignDay
545,23.97145856475508
2,1, 7,21, 0,17, 0.00,60.00,SummerDesignDay
8,21.42822317147698
11,355333864.01974919
123,281262256.13782337
2,1, 7,21, 0,17, 0.00,60.00,SummerDesignDay
545,23.971460525814213
2,1, 7,21, 0,18, 0.00,60.00,SummerDesignDay
8,21.15931786227956
11,353809012.00144377
123,287277682.0834664
2,1, 7,21, 0,18, 0.00,60.00,SummerDesignDay
545,23.971556013165018
2,1, 7,21, 0,19, 0.00,60.00,SummerDesignDay
8,20.750583661392644
11,349907871.9168808
123,297830128.0954777
2,1, 7,21, 0,19, 0.00,60.00,SummerDesignDay
545,23.971974080079855
2,1, 7,21, 0,20, 0.00,60.00,SummerDesignDay
8,20.446661088459409
11,340335772.12447646
123,304870931.58842328
2,1, 7,21, 0,20, 0.00,60.00,SummerDesignDay
545,23.97280063894425
2,1, 7,21, 0,21, 0.00,60.00,SummerDesignDay
8,20.19530361990708
11,345681796.3061546
123,292185015.45019337
2,1, 7,21, 0,21, 0.00,60.00,SummerDesignDay
545,23.9733969362576
2,1, 7,21, 0,22, 0.00,60.00,SummerDesignDay
8,19.941485234887624
11,342889219.4167294
123,299698270.6180663
2,1, 7,21, 0,22, 0.00,60.00,SummerDesignDay
545,23.973716602096869
2,1, 7,21, 0,23, 0.00,60.00,SummerDesignDay
8,19.7423381019073
11,334179037.4508107
123,293987657.01382926
2,1, 7,21, 0,23, 0.00,60.00,SummerDesignDay
545,23.97393269282346
2,1, 7,21, 0,24, 0.00,60.00,SummerDesignDay
8,19.54165603023991
11,321008705.58243778
123,275601056.74727079
2,1, 7,21, 0,24, 0.00,60.00,SummerDesignDay
545,23.974116574665289
3,1, 7,21, 0,SummerDesignDay
546,60.80287535572319,55.58264966810863, 1,10,72.59332134127783, 6,10
4,1, 7
7,25.312875000000003,21.0,21, 5,60,30.3,21,14,60
1,BUFFALO NIAGARA INTL AP ANN CLG .4% CONDNS WB=>MDB 1,  42.93, -78.73,  -5.00, 215.00
2,1, 7,21, 0, 1, 0.00,60.00,SummerDesignDay
8,19.615996954992807
11,214819634.46282513
123,269330677.9965117
2,1, 7,21, 0, 1, 0.00,60.00,SummerDesignDay
545,28.63589607400051
2,1, 7,21, 0, 2, 0.00,60.00,SummerDesignDay
8,19.243988037109376
11,203987728.78160719
123,160950303.36161898
2,1, 7,21, 0, 2, 0.00,60.00,SummerDesignDay
545,29.529484076211849
2,1, 7,21, 0, 3, 0.00,60.00,SummerDesignDay
8,18.96499632356402
11,201838191.53744895
123,151167626.95884983
2,1, 7,21, 0, 3, 0.00,60.00,SummerDesignDay
545,29.74765176397912
2,1, 7,21, 0, 4, 0.00,60.00,SummerDesignDay
8,18.685989379882814
11,201838230.7712685
123,151167626.95884983
2,1, 7,21, 0, 4, 0.00,60.00,SummerDesignDay
545,29.863463618755544
2,1, 7,21, 0, 5, 0.00,60.00,SummerDesignDay
8,18.49999810986028
11,201838269.68226023
123,151167626.95884983
2,1, 7,21, 0, 5, 0.00,60.00,SummerDesignDay
545,29.92920647754393
2,1, 7,21, 0, 6, 0.00,60.00,SummerDesignDay
8,18.685989379882814
11,252834951.84531895
123,151167626.95884983
2,1, 7,21, 0, 6, 0.00,60.00,SummerDesignDay
545,26.37544335626533
2,1, 7,21, 0, 7, 0.00,60.00,SummerDesignDay
8,19.336990356445314
11,305779511.12700769
123,275157174.3732168
2,1, 7,21, 0, 7, 0.00,60.00,SummerDesignDay
545,24.27162378746523
2,1, 7,21, 0, 8, 0.00,60.00,SummerDesignDay
8,20.917992548817627
11,335375504.3910159
123,300503626.9337641
2,1, 7,21, 0, 8, 0.00,60.00,SummerDesignDay
545,23.97865954491832
2,1, 7,21, 0, 9, 0.00,60.00,SummerDesignDay
8,22.420023807696297
11,333990432.30574348
123,299713326.69354537
2,1, 7,21, 0, 9, 0.00,60.00,SummerDesignDay
545,23.97586020502923
2,1, 7,21, 0,10, 0.00,60.00,SummerDesignDay
8,22.854695006230427
11,339096265.5189503
123,291151060.41675308
2,1, 7,21, 0,10, 0.00,60.00,SummerDesignDay
545,23.973770174471448
2,1, 7,21, 0,11, 0.00,60.00,SummerDesignDay
8,23.232104587122938
11,357191625.2977711
123,290062246.85186406
2,1, 7,21, 0,11, 0.00,60.00,SummerDesignDay
545,23.97190028137266
2,1, 7,21, 0,12, 0.00,60.00,SummerDesignDay
8,23.480593542408348
11,363700681.9911598
123,291154843.9457349
2,1, 7,21, 0,12, 0.00,60.00,SummerDesignDay
545,23.971427291171666
2,1, 7,21, 0,13, 0.00,60.00,SummerDesignDay
8,23.677626430315248
11,365393702.0230071
123,290066265.2704592
2,1, 7,21, 0,13, 0.00,60.00,SummerDesignDay
545,23.971424078461195
2,1, 7,21, 0,14, 0.00,60.00,SummerDesignDay
8,23.799986320868798
11,366035168.81168636
123,281677057.47476986
2,1, 7,21, 0,14, 0.00,60.00,SummerDesignDay
545,23.971350030167306
2,1, 7,21, 0,15, 0.00,60.00,SummerDesignDay
8,23.799986320868798
11,364192470.5816603
123,282790046.41091266
2,1, 7,21, 0,15, 0.00,60.00,SummerDesignDay
545,23.971286045634348
2,1, 7,21, 0,16, 0.00,60.00,SummerDesignDay
8,23.653081835774505
11,360498004.06191316
123,284197029.593374
2,1, 7,21, 0,16, 0.00,60.00,SummerDesignDay
545,23.97130833670525
2,1, 7,21, 0,17, 0.00,60.00,SummerDesignDay
8,23.4558543827806
11,356466759.9291427
123,281262369.6838274
2,1, 7,21, 0,17, 0.00,60.00,SummerDesignDay
545,23.971315569400355
2,1, 7,21, 0,18, 0.00,60.00,SummerDesignDay
8,23.207119318496696
11,354908364.1241727
123,287277549.2802145
2,1, 7,21, 0,18, 0.00,60.00,SummerDesignDay
545,23.97139981099653
2,1, 7,21, 0,19, 0.00,60.00,SummerDesignDay
8,22.82933132300861
11,350788952.91289886
123,297830128.0168388
2,1, 7,21, 0,19, 0.00,60.00,SummerDesignDay
545,23.97179802536908
2,1, 7,21, 0,20, 0.00,60.00,SummerDesignDay
8,22.548645905899027
11,340859693.49724438
123,304871051.03714957
2,1, 7,21, 0,20, 0.00,60.00,SummerDesignDay
545,23.972622917773877
2,1, 7,21, 0,21, 0.00,60.00,SummerDesignDay
8,22.312987690310977
11,346333404.9894923
123,292185015.5928452
2,1, 7,21, 0,21, 0.00,60.00,SummerDesignDay
545,23.973276160442216
2,1, 7,21, 0,22, 0.00,60.00,SummerDesignDay
8,21.475995587251039
11,341167436.61737927
123,299698270.7500183
2,1, 7,21, 0,22, 0.00,60.00,SummerDesignDay
545,23.973681137665627
2,1, 7,21, 0,23, 0.00,60.00,SummerDesignDay
8,20.824995071347869
11,330312451.88499149
123,293987569.128709
2,1, 7,21, 0,23, 0.00,60.00,SummerDesignDay
545,23.97385771323727
2,1, 7,21, 0,24, 0.00,60.00,SummerDesignDay
8,20.173995840857065
11,315015157.06761017
123,275601153.9992485
2,1, 7,21, 0,24, 0.00,60.00,SummerDesignDay
545,23.974116267008115
3,1, 7,21, 0,SummerDesignDay
546,64.61772040398985,58.971360594234017, 8,60,77.68294769086852, 6,10
4,1, 7
7,22.812875000000003,18.5,21, 5,60,27.8,21,14,60
1,BUFFALO NIAGARA INTL AP ANN HTG 99.6% CONDNS DB 1,  42.93, -78.73,  -5.00, 215.00
2,1, 1,21, 0, 1, 0.00,60.00,WinterDesignDay
8,-16.3
11,45664330.785625237
123,658084522.525384
2,1, 1,21, 0, 1, 0.00,60.00,WinterDesignDay
545,21.000000000000008
2,1, 1,21, 0, 2, 0.00,60.00,WinterDesignDay
8,-16.3
11,36520897.65128943
123,512290896.9125851
2,1, 1,21, 0, 2, 0.00,60.00,WinterDesignDay
545,21.000000000000044
2,1, 1,21, 0, 3, 0.00,60.00,WinterDesignDay
8,-16.3
11,36520937.21051265
123,508321237.11657938
2,1, 1,21, 0, 3, 0.00,60.00,WinterDesignDay
545,20.999999999999984
2,1, 1,21, 0, 4, 0.00,60.00,WinterDesignDay
8,-16.3
11,36520976.44348034
123,508321237.2266083
2,1, 1,21, 0, 4, 0.00,60.00,WinterDesignDay
545,20.999999999999955
2,1, 1,21, 0, 5, 0.00,60.00,WinterDesignDay
8,-16.3
11,36521015.353629168
123,508321237.32430949
2,1, 1,21, 0, 5, 0.00,60.00,WinterDesignDay
545,20.99999999999998
2,1, 1,21, 0, 6, 0.00,60.00,WinterDesignDay
8,-16.3
11,36707982.02214813
123,508321237.4110618
2,1, 1,21, 0, 6, 0.00,60.00,WinterDesignDay
545,21.000000000000033
2,1, 1,21, 0, 7, 0.00,60.00,WinterDesignDay
8,-16.3
11,42885888.35965996
123,659925294.4804872
2,1, 1,21, 0, 7, 0.00,60.00,WinterDesignDay
545,20.99999999999998
2,1, 1,21, 0, 8, 0.00,60.00,WinterDesignDay
8,-16.3
11,42885927.907669078
123,659929358.7444784
2,1, 1,21, 0, 8, 0.00,60.00,WinterDesignDay
545,21.00000000000003
2,1, 1,21, 0, 9, 0.00,60.00,WinterDesignDay
8,-16.3
11,26398349.46006907
123,657696368.7331389
2,1, 1,21, 0, 9, 0.00,60.00,WinterDesignDay
545,21.000000000000015
2,1, 1,21, 0,10, 0.00,60.00,WinterDesignDay
8,-16.3
11,48850016.101341288
123,689670897.9359471
2,1, 1,21, 0,10, 0.00,60.00,WinterDesignDay
545,20.999999999999966
2,1, 1,21, 0,11, 0.00,60.00,WinterDesignDay
8,-16.3
11,46734377.398576389
123,684157134.2469299
2,1, 1,21, 0,11, 0.00,60.00,WinterDesignDay
545,20.999999999999944
2,1, 1,21, 0,12, 0.00,60.00,WinterDesignDay
8,-16.3
11,49207545.8219234
123,689670898.0263505
2,1, 1,21, 0,12, 0.00,60.00,WinterDesignDay
545,20.999999999999976
2,1, 1,21, 0,13, 0.00,60.00,WinterDesignDay
8,-16.3
11,49190325.157135929
123,689670898.0641036
2,1, 1,21, 0,13, 0.00,60.00,WinterDesignDay
545,21.000000000000033
2,1, 1,21, 0,14, 0.00,60.00,WinterDesignDay
8,-16.3
11,46728176.43149683
123,684156572.1154072
2,1, 1,21, 0,14, 0.00,60.00,WinterDesignDay
545,20.999999999999976
2,1, 1,21, 0,15, 0.00,60.00,WinterDesignDay
8,-16.3
11,44575281.96568105
123,684010719.8898749
2,1, 1,21, 0,15, 0.00,60.00,WinterDesignDay
545,20.99999999999995
2,1, 1,21, 0,16, 0.00,60.00,WinterDesignDay
8,-16.3
11,44644816.02235147
123,678357822.1179845
2,1, 1,21, 0,16, 0.00,60.00,WinterDesignDay
545,20.99999999999998
2,1, 1,21, 0,17, 0.00,60.00,WinterDesignDay
8,-16.3
11,42384234.26663233
123,677878281.1243708
2,1, 1,21, 0,17, 0.00,60.00,WinterDesignDay
545,20.999999999999994
2,1, 1,21, 0,18, 0.00,60.00,WinterDesignDay
8,-16.3
11,61179059.283912647
123,678525483.0575463
2,1, 1,21, 0,18, 0.00,60.00,WinterDesignDay
545,20.999999999999998
2,1, 1,21, 0,19, 0.00,60.00,WinterDesignDay
8,-16.3
11,68479759.60273198
123,689670898.2166302
2,1, 1,21, 0,19, 0.00,60.00,WinterDesignDay
545,21.000000000000037
2,1, 1,21, 0,20, 0.00,60.00,WinterDesignDay
8,-16.3
11,69858040.33812467
123,689670898.233057
2,1, 1,21, 0,20, 0.00,60.00,WinterDesignDay
545,21.000000000000055
2,1, 1,21, 0,21, 0.00,60.00,WinterDesignDay
8,-16.3
11,66221431.859859887
123,689670898.2476431
2,1, 1,21, 0,21, 0.00,60.00,WinterDesignDay
545,20.99999999999995
2,1, 1,21, 0,22, 0.00,60.00,WinterDesignDay
8,-16.3
11,69080342.01175955
123,689670898.2605989
2,1, 1,21, 0,22, 0.00,60.00,WinterDesignDay
545,20.99999999999998
2,1, 1,21, 0,23, 0.00,60.00,WinterDesignDay
8,-16.3
11,61144701.111959908
123,684009470.4580472
2,1, 1,21, 0,23, 0.00,60.00,WinterDesignDay
545,20.99999999999999
2,1, 1,21, 0,24, 0.00,60.00,WinterDesignDay
8,-16.3
11,56595242.398231867
123,671761961.5370361
2,1, 1,21, 0,24, 0.00,60.00,WinterDesignDay
545,20.999999999999959
3,1, 1,21, 0,WinterDesignDay
546,5.890092465424473,5.890092235236944, 1,60,5.890092580518237, 3,60
4,1, 1
7,-16.300000000000009,-16.3,21, 1,60,-16.3,21, 1,60
End of Data
 Number of Records Written=         294
