Program Version,EnergyPlus, Version 9.1.0-fafb9d5652, YMD=2020.03.26 13:28
1,5,Environment Title[],Latitude[deg],Longitude[deg],Time Zone[],Elevation[m]
2,8,Day of Simulation[],Month[],Day of Month[],DST Indicator[1=yes 0=no],Hour[],StartMinute[],EndMinute[],DayType
3,5,Cumulative Day of Simulation[],Month[],Day of Month[],DST Indicator[1=yes 0=no],DayType  ! When Daily Report Variables Requested
4,2,Cumulative Days of Simulation[],Month[]  ! When Monthly Report Variables Requested
5,1,Cumulative Days of Simulation[] ! When Run Period Report Variables Requested
6,1,Calendar Year of Simulation[] ! When Annual Report Variables Requested
699,1,BUILDING STORY 1 THERMALZONE FULLSERVICERESTAURANT DINING PEOPLE 1,Zone Thermal Comfort Fanger Model PMV [] !TimeStep
700,1,BUILDING STORY 1 THERMALZONE FULLSERVICERESTAURANT DINING PEOPLE 1,Zone Thermal Comfort Fanger Model PPD [%] !TimeStep
701,1,BUILDING STORY 1 THERMALZONE FULLSERVICERESTAURANT KITCHEN PEOPLE 1,Zone Thermal Comfort Fanger Model PMV [] !TimeStep
702,1,BUILDING STORY 1 THERMALZONE FULLSERVICERESTAURANT KITCHEN PEOPLE 1,Zone Thermal Comfort Fanger Model PPD [%] !TimeStep
703,1,BUILDING STORY 1 THERMALZONE,Zone Thermal Comfort ASHRAE 55 Simple Model Summer Clothes Not Comfortable Time [hr] !TimeStep
704,1,BUILDING STORY 1 THERMALZONE,Zone Thermal Comfort ASHRAE 55 Simple Model Winter Clothes Not Comfortable Time [hr] !TimeStep
705,1,BUILDING STORY 1 THERMALZONE,Zone Thermal Comfort ASHRAE 55 Simple Model Summer or Winter Clothes Not Comfortable Time [hr] !TimeStep
859,1,Heating:Electricity [J] !TimeStep
885,1,Heating:Gas [J] !TimeStep
833,1,Cooling:Electricity [J] !TimeStep
46,1,InteriorLights:Electricity [J] !TimeStep
744,1,ExteriorLights:Electricity [J] !TimeStep
84,1,InteriorEquipment:Electricity [J] !TimeStep
158,1,InteriorEquipment:Gas [J] !TimeStep
719,1,Fans:Electricity [J] !TimeStep
952,1,Pumps:Electricity [J] !TimeStep
256,1,WaterSystems:Electricity [J] !TimeStep
406,1,WaterSystems:Gas [J] !TimeStep
307,1,WaterSystems:Water [m3] !TimeStep
10,1,Electricity:Facility [J] !TimeStep
122,1,Gas:Facility [J] !TimeStep
283,1,Water:Facility [m3] !TimeStep
End of Data Dictionary
1,RUN PERIOD 1,  42.93, -78.73,  -5.00, 215.00
2,1, 1, 1, 0, 1, 0.00,60.00,Tuesday
699,-0.46294392044367979
700,9.473999501598812
701,-0.46294392044367979
702,9.473999501598812
703,1.0
704,0.0
705,0.0
10,37534298.17199738
46,4176663.0793429568
84,13899010.258111028
122,159845020.8756059
158,15638030.375053427
256,9335996.513539957
283,0.16111592685372248
307,0.16111592685372248
406,144206990.50055249
719,0.0
744,10122628.320000023
833,0.0
859,0.0
885,0.0
952,0.0010034227748342096
2,1, 1, 1, 0, 2, 0.00,60.00,Tuesday
699,-0.36595207332188425
700,7.787640840137385
701,-0.36595207332188425
702,7.787640840137385
703,0.0
704,0.0
705,0.0
10,24219430.090177239
46,4644023.290290836
84,9266006.838740686
122,12060230.502044602
158,10425353.583368952
256,186771.64114569408
283,0.0
307,0.0
406,1634876.91867565
719,0.0
744,10122628.320000023
833,0.0
859,0.0
885,0.0
952,0.0
2,1, 1, 1, 0, 3, 0.00,60.00,Tuesday
699,-0.39462862398849488
700,8.244286190937899
701,-0.39462862398849488
702,8.244286190937899
703,0.0
704,0.0
705,0.0
10,28852473.505781358
46,4644023.290290836
84,13899010.258111028
122,15638030.375053427
158,15638030.375053427
256,186811.63737947198
283,0.0
307,0.0
406,0.0
719,0.0
744,10122628.320000023
833,0.0
859,0.0
885,0.0
952,0.0
2,1, 1, 1, 0, 4, 0.00,60.00,Tuesday
699,-0.39414820271873238
700,8.236346702536679
701,-0.39414820271873238
702,8.236346702536679
703,0.0
704,0.0
705,0.0
10,24219509.749731136
46,4644023.290290836
84,9266006.838740686
122,10425353.583368952
158,10425353.583368952
256,186851.30069959054
283,0.0
307,0.0
406,0.0
719,0.0
744,10122628.320000023
833,0.0
859,0.0
885,0.0
952,0.0
2,1, 1, 1, 0, 5, 0.00,60.00,Tuesday
699,-0.3754330824132742
700,7.934732994201511
701,-0.3754330824132742
702,7.934732994201511
703,0.0
704,0.0
705,0.0
10,38118559.341783788
46,4644023.290290836
84,23165017.096851715
122,31285796.883048636
158,26063383.95842238
256,186890.63464120887
283,0.0
307,0.0
406,5222412.9246262549
719,0.0
744,10122628.320000023
833,0.0
859,0.0
885,0.0
952,0.0
2,1, 1, 1, 0, 6, 0.00,60.00,Tuesday
699,-0.31742730757638967
700,7.094685561309191
701,-0.31742730757638967
702,7.094685561309191
703,1.0
704,0.0
705,0.0
10,71660710.64351085
46,5568200.666990385
84,55596041.03244411
122,62552121.500213708
158,62552121.500213708
256,373840.6240763153
283,0.0
307,0.0
406,0.0
719,0.0
744,10122628.320000023
833,0.0
859,0.0
885,0.0
952,0.0
2,1, 1, 1, 0, 7, 0.00,60.00,Tuesday
699,-0.07332078832492622
700,5.1113114007460329
701,-0.07332078832492622
702,5.1113114007460329
703,1.0
704,0.0
705,0.0
10,88039955.74882506
46,11136401.33398077
84,60229044.45181446
122,206894839.06524296
158,67764798.29189819
256,186892.2925840336
283,0.12083694514029186
307,0.12083694514029186
406,139130040.77334477
719,0.0
744,16487617.669471898
833,0.0
859,0.0
885,0.0
952,0.0009739076769504487
2,1, 1, 1, 0, 8, 0.00,60.00,Tuesday
699,0.08799430539754939
700,5.160339438539296
701,0.08799430539754939
702,5.160339438539296
703,1.0
704,0.0
705,0.0
10,167321638.47573955
46,11136401.33398077
84,69495051.29055514
122,364971707.61035856
158,78190151.87526714
256,27049051.866731749
283,0.48334778056116747
307,0.48334778056116747
406,175331602.30902393
719,43153516.31376043
744,16487617.669471898
833,0.0
859,0.0
885,111449953.42606746
952,0.0012395435579042962
2,1, 1, 1, 0, 9, 0.00,60.00,Tuesday
699,-0.25852561356506517
700,6.387524509127445
701,-0.25852561356506517
702,6.387524509127445
703,1.0
704,0.0
705,0.0
10,170411104.98586465
46,16704602.000971154
84,83394061.54866617
122,390146684.439449
158,93828182.25032057
256,27158925.121256845
283,0.4430687988477368
307,0.4430687988477368
406,175331602.30902393
719,43153516.31376043
744,0.0
833,0.0
859,0.0
885,120986899.88010454
952,0.0012100284600205355
2,1, 1, 1, 0,10, 0.00,60.00,Tuesday
699,-0.3406318957314719
700,7.413576023978948
701,-0.3406318957314719
702,7.413576023978948
703,1.0
704,0.0
705,0.0
10,177748518.21683405
46,16704602.000971154
84,97293071.8067772
122,377666847.8103156
158,109466212.62537399
256,20597328.09417426
283,0.3625108354208756
307,0.3625108354208756
406,169896005.39258138
719,43153516.31376043
744,0.0
833,0.0
859,0.0
885,98304629.79236022
952,0.0011509982642530139
2,1, 1, 1, 0,11, 0.00,60.00,Tuesday
699,-0.33293062146982435
700,7.30520779684467
701,-0.33293062146982435
702,7.30520779684467
703,1.0
704,0.0
705,0.0
10,207054802.15471379
46,25057928.15965707
84,120458088.90362892
122,397975953.7755304
158,135529596.58379639
256,18385268.776545884
283,0.32223185370744497
307,0.32223185370744497
406,164181925.77196298
719,43153516.31376043
744,0.0
833,0.0
859,0.0
885,98264431.41977103
952,0.0011214831663692528
2,1, 1, 1, 0,12, 0.00,60.00,Tuesday
699,-0.3081167931247193
700,6.973151418747207
701,-0.3081167931247193
702,6.973151418747207
703,1.0
704,0.0
705,0.0
10,223409722.73756007
46,25057928.15965707
84,134357099.16173996
122,360987291.1934936
158,151167626.95884983
256,20841179.10125162
283,0.3625108354208756
307,0.3625108354208756
406,164467285.86922563
719,43153516.31376043
744,0.0
833,0.0
859,0.0
885,45352378.36541819
952,0.0011509982642530139
2,1, 1, 1, 0,13, 0.00,60.00,Tuesday
699,-0.2833625506319098
700,6.667855023227602
701,-0.2833625506319098
702,6.667855023227602
703,1.0
704,0.0
705,0.0
10,211717515.6732775
46,25057928.15965707
84,125091092.32299926
122,304920167.51701059
158,140742273.37548087
256,18414978.87573925
283,0.32223185370744497
307,0.32223185370744497
406,164177894.1415297
719,43153516.31376043
744,0.0
833,0.0
859,0.0
885,0.0
952,0.0011214831663692528
2,1, 1, 1, 0,14, 0.00,60.00,Tuesday
699,-0.27700410974137948
700,6.59361244128128
701,-0.27700410974137948
702,6.59361244128128
703,1.0
704,0.0
705,0.0
10,200282837.14427457
46,25057928.15965707
84,115825085.48425856
122,295938149.6108115
158,130316919.7921119
256,16246307.185506544
283,0.2819528719940143
307,0.2819528719940143
406,158156452.24285705
719,43153516.31376043
744,0.0
833,0.0
859,0.0
885,7464777.575842518
952,0.001091968068485492
2,1, 1, 1, 0,15, 0.00,60.00,Tuesday
699,-0.2895106622501693
700,6.741263961852383
701,-0.2895106622501693
702,6.741263961852383
703,1.0
704,0.0
705,0.0
10,188511786.15212275
46,25057928.15965707
84,106559078.64551789
122,327319467.11442378
158,119891566.20874295
256,13741263.03212492
283,0.24167389028058373
307,0.24167389028058373
406,153717405.07285283
719,43153516.31376043
744,0.0
833,0.0
859,0.0
885,53710495.83282801
952,0.0010624529706017316
2,1, 1, 1, 0,16, 0.00,60.00,Tuesday
699,-0.30498943639012929
700,6.933151922851977
701,-0.30498943639012929
702,6.933151922851977
703,1.0
704,0.0
705,0.0
10,188749447.82826043
46,25057928.15965707
84,106559078.64551789
122,361140464.89174756
158,119891566.20874295
256,13978924.70826259
283,0.24167389028058373
307,0.24167389028058373
406,155758559.50064025
719,43153516.31376043
744,0.0
833,0.0
859,0.0
885,85490339.18236435
952,0.0010624529706017316
2,1, 1, 1, 0,17, 0.00,60.00,Tuesday
699,-0.30859073736534456
700,6.979249367581687
701,-0.30859073736534456
702,6.979249367581687
703,1.0
704,0.0
705,0.0
10,202573336.7683611
46,25057928.15965707
84,120458088.90362892
122,361365054.0347924
158,135529596.58379639
256,13903803.390252226
283,0.24167389028058373
307,0.24167389028058373
406,151800495.06121836
719,43153516.31376043
744,0.0
833,0.0
859,0.0
885,74034962.38977766
952,0.0010624529706017316
2,1, 1, 1, 0,18, 0.00,60.00,Tuesday
699,-0.30358499682505477
700,6.915323497827501
701,-0.30358499682505477
702,6.915323497827501
703,1.0
704,0.0
705,0.0
10,223590026.86766926
46,25057928.15965707
84,120458088.90362892
122,348194761.7997132
158,135529596.58379639
256,18432875.82002947
283,0.32223185370744497
307,0.32223185370744497
406,164173781.03043676
719,43153516.31376043
744,16487617.669471898
833,0.0
859,0.0
885,48491384.185480039
952,0.0011214831663692528
2,1, 1, 1, 0,19, 0.00,60.00,Tuesday
699,-0.29122302354303028
700,6.761993816582347
701,-0.29122302354303028
702,6.761993816582347
703,1.0
704,0.0
705,0.0
10,221867731.46915788
46,25057928.15965707
84,111192082.06488823
122,322258188.82203117
158,125104243.00042741
256,25976587.260170215
283,0.4430687988477368
307,0.4430687988477368
406,175331602.30902393
719,43153516.31376043
744,16487617.669471898
833,0.0
859,0.0
885,21822343.512579785
952,0.0012100284600205355
2,1, 1, 1, 0,20, 0.00,60.00,Tuesday
699,-0.28714354794332977
700,6.712811533825317
701,-0.28714354794332977
702,6.712811533825317
703,1.0
704,0.0
705,0.0
10,213784062.4915333
46,25057928.15965707
84,101926075.22614753
122,314693439.5617344
158,114678889.41705847
256,27158925.121256845
283,0.48334778056116747
307,0.48334778056116747
406,175331602.30902393
719,43153516.31376043
744,16487617.669471898
833,0.0
859,0.0
885,24682947.835651969
952,0.0012395435579042962
2,1, 1, 1, 0,21, 0.00,60.00,Tuesday
699,-0.2890185080476547
700,6.735328847923185
701,-0.2890185080476547
702,6.735328847923185
703,1.0
704,0.0
705,0.0
10,200596362.8800665
46,25057928.15965707
84,92660068.38740686
122,315155823.6272081
158,104253535.83368953
256,23237232.348589753
283,0.40278981713430619
307,0.40278981713430619
406,175331602.30902393
719,43153516.31376043
744,16487617.669471898
833,0.0
859,0.0
885,35570685.48449469
952,0.0011805133621367748
2,1, 1, 1, 0,22, 0.00,60.00,Tuesday
699,-0.3082144574684596
700,6.974407228157091
701,-0.3082144574684596
702,6.974407228157091
703,1.0
704,0.0
705,0.0
10,193440163.65529359
46,25057928.15965707
84,83394061.54866617
122,352588399.9169675
158,93828182.25032057
256,25347039.96252799
283,0.4430687988477368
307,0.4430687988477368
406,175331602.30902393
719,43153516.31376043
744,16487617.669471898
833,0.0
859,0.0
885,83428615.35762306
952,0.0012100284600205355
2,1, 1, 1, 0,23, 0.00,60.00,Tuesday
699,-0.36357512238917258
700,7.7513645755386169
701,-0.36357512238917258
702,7.7513645755386169
703,1.0
704,0.0
705,0.0
10,135800747.25327523
46,13921526.825676296
84,41697030.77433308
122,356335815.1289389
158,46914091.125160288
256,20541055.66888251
283,0.3625108354208756
307,0.3625108354208756
406,169897226.2272024
719,43153516.31376043
744,16487617.669471898
833,0.0
859,0.0
885,139524497.77657629
952,0.0011509982642530139
2,1, 1, 1, 0,24, 0.00,60.00,Tuesday
699,-0.4213413519119517
700,8.701288049874265
701,-0.4213413519119517
702,8.701288049874265
703,1.0
704,0.0
705,0.0
10,93444037.6568048
46,8353326.158685913
84,13899010.258111028
122,347454795.91812899
158,15638030.375053427
256,11550567.255742593
283,0.20139490856715309
307,0.20139490856715309
406,147501318.15823055
719,43153516.31376043
744,16487617.669471898
833,0.0
859,0.0
885,184315447.38484497
952,0.0010329378727179705
2,2, 1, 2, 0, 1, 0.00,60.00,Wednesday
699,-0.4650145156368294
700,9.51440287434302
701,-0.4650145156368294
702,9.51440287434302
703,1.0
704,0.0
705,0.0
10,37623721.27357567
46,4176663.0793429568
84,13899010.258111028
122,163616500.61070667
158,15638030.375053427
256,9425419.615118243
283,0.16111592685372248
307,0.16111592685372248
406,147978470.23565323
719,0.0
744,10122628.320000023
833,0.0
859,0.0
885,0.0
952,0.0010034203107620148
2,2, 1, 2, 0, 2, 0.00,60.00,Wednesday
699,-0.3743865920940278
700,7.918309130945872
701,-0.3743865920940278
702,7.918309130945872
703,0.0
704,0.0
705,0.0
10,24251370.57618406
46,4644023.290290836
84,9266006.838740686
122,11591816.939028817
158,10425353.583368952
256,218712.12715251803
283,0.0
307,0.0
406,1166463.3556598642
719,0.0
744,10122628.320000023
833,0.0
859,0.0
885,0.0
952,0.0
2,2, 1, 2, 0, 3, 0.00,60.00,Wednesday
699,-0.44566069354258489
700,9.143953088196909
701,-0.44566069354258489
702,9.143953088196909
703,0.0
704,0.0
705,0.0
10,28852440.165669674
46,4644023.290290836
84,13899010.258111028
122,15638030.375053427
158,15638030.375053427
256,186778.29726778749
283,0.0
307,0.0
406,0.0
719,0.0
744,10122628.320000023
833,0.0
859,0.0
885,0.0
952,0.0
2,2, 1, 2, 0, 4, 0.00,60.00,Wednesday
699,-0.4469248063910769
700,9.167657405827442
701,-0.4469248063910769
702,9.167657405827442
703,0.0
704,0.0
705,0.0
10,24219476.68707635
46,4644023.290290836
84,9266006.838740686
122,10425353.583368952
158,10425353.583368952
256,186818.23804480639
283,0.0
307,0.0
406,0.0
719,0.0
744,10122628.320000023
833,0.0
859,0.0
885,0.0
952,0.0
2,2, 1, 2, 0, 5, 0.00,60.00,Wednesday
699,-0.4522871655595547
700,9.268975098552545
701,-0.4522871655595547
702,9.268975098552545
703,0.0
704,0.0
705,0.0
10,38118526.55364043
46,4644023.290290836
84,23165017.096851715
122,31285800.092568455
158,26063383.95842238
256,186857.84649785947
283,0.0
307,0.0
406,5222416.134146071
719,0.0
744,10122628.320000023
833,0.0
859,0.0
885,0.0
952,0.0
2,2, 1, 2, 0, 6, 0.00,60.00,Wednesday
699,-0.3947537728230347
700,8.246356032842954
701,-0.3947537728230347
702,8.246356032842954
703,1.0
704,0.0
705,0.0
10,71660626.12433666
46,5568200.666990385
84,55596041.03244411
122,62552121.500213708
158,62552121.500213708
256,373756.1049021345
283,0.0
307,0.0
406,0.0
719,0.0
744,10122628.320000023
833,0.0
859,0.0
885,0.0
952,0.0
2,2, 1, 2, 0, 7, 0.00,60.00,Wednesday
699,-0.18055021464495678
700,5.67577271242132
701,-0.18055021464495678
702,5.67577271242132
703,1.0
704,0.0
705,0.0
10,88039961.76953829
46,11136401.33398077
84,60229044.45181446
122,206947772.85086949
158,67764798.29189819
256,186898.31329725949
283,0.12083694514029185
307,0.12083694514029185
406,139182974.5589713
719,0.0
744,16487617.669471898
833,0.0
859,0.0
885,0.0
952,0.0009739049963268719
2,2, 1, 2, 0, 8, 0.00,60.00,Wednesday
699,0.053078844366895288
700,5.058328207967136
701,0.053078844366895288
702,5.058328207967136
703,1.0
704,0.0
705,0.0
10,167291544.5059054
46,11136401.33398077
84,69495051.29055514
122,382214822.10193088
158,78190151.87526714
256,27018957.8968976
283,0.48334778056116747
307,0.48334778056116747
406,175331602.30902393
719,43153516.31376043
744,16487617.669471898
833,0.0
859,0.0
885,128693067.91763979
952,0.0012395401460979833
2,2, 1, 2, 0, 9, 0.00,60.00,Wednesday
699,-0.26216720079511598
700,6.42700096884559
701,-0.26216720079511598
702,6.42700096884559
703,1.0
704,0.0
705,0.0
10,170411104.98586465
46,16704602.000971154
84,83394061.54866617
122,395900198.5226517
158,93828182.25032057
256,27158925.121256845
283,0.4430687988477368
307,0.4430687988477368
406,175331602.30902393
719,43153516.31376043
744,0.0
833,0.0
859,0.0
885,126740413.96330719
952,0.0012100251294536369
2,2, 1, 2, 0,10, 0.00,60.00,Wednesday
699,-0.34760237517545469
700,7.513833184404717
701,-0.34760237517545469
702,7.513833184404717
703,1.0
704,0.0
705,0.0
10,177756404.1276219
46,16704602.000971154
84,97293071.8067772
122,384533719.90529426
158,109466212.62537399
256,20605214.004962118
283,0.3625108354208756
307,0.3625108354208756
406,169903105.5951986
719,43153516.31376043
744,0.0
833,0.0
859,0.0
885,105164401.68472167
952,0.0011509950961649516
2,2, 1, 2, 0,11, 0.00,60.00,Wednesday
699,-0.3368537504203375
700,7.360097276585208
701,-0.3368537504203375
702,7.360097276585208
703,1.0
704,0.0
705,0.0
10,207060715.65644429
46,25057928.15965707
84,120458088.90362892
122,409828999.7912377
158,135529596.58379639
256,18391182.27827639
283,0.32223185370744497
307,0.32223185370744497
406,164196189.39193047
719,43153516.31376043
744,0.0
833,0.0
859,0.0
885,110103213.81551087
952,0.0011214800795206089
2,2, 1, 2, 0,12, 0.00,60.00,Wednesday
699,-0.3081436726252662
700,6.973497006467483
701,-0.3081436726252662
702,6.973497006467483
703,1.0
704,0.0
705,0.0
10,223380075.52636934
46,25057928.15965707
84,134357099.16173996
122,361559016.3016556
158,151167626.95884983
256,20811531.890060896
283,0.3625108354208756
307,0.3625108354208756
406,164480888.3536
719,43153516.31376043
744,0.0
833,0.0
859,0.0
885,45910500.98920577
952,0.0011509950961649516
2,2, 1, 2, 0,13, 0.00,60.00,Wednesday
699,-0.2883174304854346
700,6.7268918916073379
701,-0.2883174304854346
702,6.7268918916073379
703,1.0
704,0.0
705,0.0
10,211724603.13899876
46,25057928.15965707
84,125091092.32299926
122,304932858.3115268
158,140742273.37548087
256,18422066.341460505
283,0.32223185370744497
307,0.32223185370744497
406,164190584.93604592
719,43153516.31376043
744,0.0
833,0.0
859,0.0
885,0.0
952,0.0011214800795206089
2,2, 1, 2, 0,14, 0.00,60.00,Wednesday
699,-0.29099997298260929
700,6.759286551045278
701,-0.29099997298260929
702,6.759286551045278
703,1.0
704,0.0
705,0.0
10,200203338.2900234
46,25057928.15965707
84,115825085.48425856
122,307675453.25604817
158,130316919.7921119
256,16166808.33125538
283,0.2819528719940143
307,0.2819528719940143
406,158175623.00186438
719,43153516.31376043
744,0.0
833,0.0
859,0.0
885,19182910.46207184
952,0.0010919650628762664
2,2, 1, 2, 0,15, 0.00,60.00,Wednesday
699,-0.3014017336682156
700,6.887774067405161
701,-0.3014017336682156
702,6.887774067405161
703,1.0
704,0.0
705,0.0
10,188623392.42241387
46,25057928.15965707
84,106559078.64551789
122,342557884.5380551
158,119891566.20874295
256,13852869.302416023
283,0.24167389028058373
307,0.24167389028058373
406,157700325.72827403
719,43153516.31376043
744,0.0
833,0.0
859,0.0
885,64965992.601038169
952,0.0010624500462319235
2,2, 1, 2, 0,16, 0.00,60.00,Wednesday
699,-0.3170309400934057
700,7.089436791923077
701,-0.3170309400934057
702,7.089436791923077
703,1.0
704,0.0
705,0.0
10,188642819.4318912
46,25057928.15965707
84,106559078.64551789
122,367929454.3492509
158,119891566.20874295
256,13872296.311893382
283,0.24167389028058373
307,0.24167389028058373
406,151837037.0755232
719,43153516.31376043
744,0.0
833,0.0
859,0.0
885,96200851.06498482
952,0.0010624500462319235
2,2, 1, 2, 0,17, 0.00,60.00,Wednesday
699,-0.3189260249485154
700,7.114592010746506
701,-0.3189260249485154
702,7.114592010746506
703,1.0
704,0.0
705,0.0
10,202666453.11094267
46,25057928.15965707
84,120458088.90362892
122,378265533.3023737
158,135529596.58379639
256,13996919.732833799
283,0.24167389028058373
307,0.24167389028058373
406,157700859.31143508
719,43153516.31376043
744,0.0
833,0.0
859,0.0
885,85035077.4071422
952,0.0010624500462319235
2,2, 1, 2, 0,18, 0.00,60.00,Wednesday
699,-0.31272231087027366
700,7.032810474550601
701,-0.31272231087027366
702,7.032810474550601
703,1.0
704,0.0
705,0.0
10,223553542.06561554
46,25057928.15965707
84,120458088.90362892
122,358748570.54952338
158,135529596.58379639
256,18396391.01797576
283,0.32223185370744497
307,0.32223185370744497
406,164197577.26564018
719,43153516.31376043
744,16487617.669471898
833,0.0
859,0.0
885,59021396.70008684
952,0.0011214800795206089
2,2, 1, 2, 0,19, 0.00,60.00,Wednesday
699,-0.2998024796033728
700,6.867721831190394
701,-0.2998024796033728
702,6.867721831190394
703,1.0
704,0.0
705,0.0
10,220820838.0765068
46,25057928.15965707
84,111192082.06488823
122,321478544.1677567
158,125104243.00042741
256,24929693.86751915
283,0.4430687988477368
307,0.4430687988477368
406,175331602.30902393
719,43153516.31376043
744,16487617.669471898
833,0.0
859,0.0
885,21042698.85830535
952,0.0012100251294536369
2,2, 1, 2, 0,20, 0.00,60.00,Wednesday
699,-0.2945407928388682
700,6.802511185187242
701,-0.2945407928388682
702,6.802511185187242
703,1.0
704,0.0
705,0.0
10,213784062.4915333
46,25057928.15965707
84,101926075.22614753
122,322709602.5885428
158,114678889.41705847
256,27158925.121256845
283,0.48334778056116747
307,0.48334778056116747
406,175331602.30902393
719,43153516.31376043
744,16487617.669471898
833,0.0
859,0.0
885,32699110.862460436
952,0.0012395401460979796
2,2, 1, 2, 0,21, 0.00,60.00,Wednesday
699,-0.29594681606374997
700,6.8198221638440519
701,-0.29594681606374997
702,6.8198221638440519
703,1.0
704,0.0
705,0.0
10,200597308.98301754
46,25057928.15965707
84,92660068.38740686
122,323785775.3560477
158,104253535.83368953
256,23238178.45154079
283,0.40278981713430619
307,0.40278981713430619
406,175331602.30902393
719,43153516.31376043
744,16487617.669471898
833,0.0
859,0.0
885,44200637.21333428
952,0.0011805101128092939
2,2, 1, 2, 0,22, 0.00,60.00,Wednesday
699,-0.31546605246490258
700,7.068779274709584
701,-0.31546605246490258
702,7.068779274709584
703,1.0
704,0.0
705,0.0
10,193444398.61581186
46,25057928.15965707
84,83394061.54866617
122,362532440.13209918
158,93828182.25032057
256,25351274.923046277
283,0.4430687988477368
307,0.4430687988477368
406,175331602.30902393
719,43153516.31376043
744,16487617.669471898
833,0.0
859,0.0
885,93372655.57275471
952,0.0012100251294536369
2,2, 1, 2, 0,23, 0.00,60.00,Wednesday
699,-0.3743181088158158
700,7.9172359669669138
701,-0.3743181088158158
702,7.9172359669669138
703,1.0
704,0.0
705,0.0
10,135808398.9867969
46,13921526.825676296
84,41697030.77433308
122,369669881.8587879
158,46914091.125160288
256,20548707.402404205
283,0.3625108354208756
307,0.3625108354208756
406,169904340.3960498
719,43153516.31376043
744,16487617.669471898
833,0.0
859,0.0
885,152851450.33757786
952,0.0011509950961649516
2,2, 1, 2, 0,24, 0.00,60.00,Wednesday
699,-0.4328782889727827
700,8.908119203386463
701,-0.4328782889727827
702,8.908119203386463
703,1.0
704,0.0
705,0.0
10,93437527.07547389
46,8353326.158685913
84,13899010.258111028
122,364898746.7604674
158,15638030.375053427
256,11544056.674411675
283,0.20139490856715309
307,0.20139490856715309
406,150858916.1572597
719,43153516.31376043
744,16487617.669471898
833,0.0
859,0.0
885,198401800.2281543
952,0.0010329350295875807
2,3, 1, 3, 0, 1, 0.00,60.00,Thursday
699,-0.48078655414606499
700,9.828225662025304
701,-0.48078655414606499
702,9.828225662025304
703,1.0
704,0.0
705,0.0
10,37621280.38122421
46,4176663.0793429568
84,13899010.258111028
122,160244360.66696099
158,15638030.375053427
256,9422978.722766787
283,0.16111592685372248
307,0.16111592685372248
406,144606330.29190756
719,0.0
744,10122628.320000023
833,0.0
859,0.0
885,0.0
952,0.0010034175935598976
2,3, 1, 3, 0, 2, 0.00,60.00,Thursday
699,-0.41577318467121729
700,8.603506166271828
701,-0.41577318467121729
702,8.603506166271828
703,0.0
704,0.0
705,0.0
10,24315149.893591327
46,4644023.290290836
84,9266006.838740686
122,12290893.103299907
158,10425353.583368952
256,282491.4445597837
283,0.0
307,0.0
406,1865539.5199309553
719,0.0
744,10122628.320000023
833,0.0
859,0.0
885,0.0
952,0.0
2,3, 1, 3, 0, 3, 0.00,60.00,Thursday
699,-0.42594865494795999
700,8.783201553560417
701,-0.42594865494795999
702,8.783201553560417
703,0.0
704,0.0
705,0.0
10,28852439.580358514
46,4644023.290290836
84,13899010.258111028
122,15638030.375053427
158,15638030.375053427
256,186777.71195662899
283,0.0
307,0.0
406,0.0
719,0.0
744,10122628.320000023
833,0.0
859,0.0
885,0.0
952,0.0
2,3, 1, 3, 0, 4, 0.00,60.00,Thursday
699,-0.4302371288751437
700,8.860265007632691
701,-0.4302371288751437
702,8.860265007632691
703,0.0
704,0.0
705,0.0
10,24219476.106640966
46,4644023.290290836
84,9266006.838740686
122,10425353.583368952
158,10425353.583368952
256,186817.65760942029
283,0.0
307,0.0
406,0.0
719,0.0
744,10122628.320000023
833,0.0
859,0.0
885,0.0
952,0.0
2,3, 1, 3, 0, 5, 0.00,60.00,Thursday
699,-0.4875205688948121
700,9.96548343921728
701,-0.4875205688948121
702,9.96548343921728
703,0.0
704,0.0
705,0.0
10,38118526.02688655
46,4644023.290290836
84,23165017.096851715
122,31285795.258283639
158,26063383.95842238
256,186857.31974397243
283,0.0
307,0.0
406,5222411.299861258
719,0.0
744,10122628.320000023
833,0.0
859,0.0
885,0.0
952,0.0
2,3, 1, 3, 0, 6, 0.00,60.00,Thursday
699,-0.45977842029525259
700,9.412588261318149
701,-0.45977842029525259
702,9.412588261318149
703,1.0
704,0.0
705,0.0
10,71660625.0764
46,5568200.666990385
84,55596041.03244411
122,62552121.500213708
158,62552121.500213708
256,373755.05696546568
283,0.0
307,0.0
406,0.0
719,0.0
744,10122628.320000023
833,0.0
859,0.0
885,0.0
952,0.0
2,3, 1, 3, 0, 7, 0.00,60.00,Thursday
699,-0.2625881884939021
700,6.431600658264443
701,-0.2625881884939021
702,6.431600658264443
703,1.0
704,0.0
705,0.0
10,88039961.24835745
46,11136401.33398077
84,60229044.45181446
122,206987586.95609016
158,67764798.29189819
256,186897.79211642839
283,0.12083694514029185
307,0.12083694514029185
406,139222788.66419197
719,0.0
744,16487617.669471898
833,0.0
859,0.0
885,0.0
952,0.0009739023642915752
2,3, 1, 3, 0, 8, 0.00,60.00,Thursday
699,-0.031206806161318769
700,5.020160368836599
701,-0.031206806161318769
702,5.020160368836599
703,1.0
704,0.0
705,0.0
10,167291254.4881358
46,11136401.33398077
84,69495051.29055514
122,432804044.78383126
158,78190151.87526714
256,27018667.879128048
283,0.48334778056116747
307,0.48334778056116747
406,175331602.30902393
719,43153516.31376043
744,16487617.669471898
833,0.0
859,0.0
885,179282290.5995402
952,0.0012395367961687808
2,3, 1, 3, 0, 9, 0.00,60.00,Thursday
699,-0.31382945559386957
700,7.047286109423368
701,-0.31382945559386957
702,7.047286109423368
703,1.0
704,0.0
705,0.0
10,170411104.98586465
46,16704602.000971154
84,83394061.54866617
122,449427694.19586727
158,93828182.25032057
256,27158925.121256845
283,0.4430687988477368
307,0.4430687988477368
406,175331602.30902393
719,43153516.31376043
744,0.0
833,0.0
859,0.0
885,180267909.63652278
952,0.0012100218592904803
2,3, 1, 3, 0,10, 0.00,60.00,Thursday
699,-0.4015668937027867
700,8.360049377701998
701,-0.4015668937027867
702,8.360049377701998
703,1.0
704,0.0
705,0.0
10,177793276.26404233
46,16704602.000971154
84,97293071.8067772
122,457071252.1640548
158,109466212.62537399
256,20642086.14138254
283,0.3625108354208756
307,0.3625108354208756
406,169910058.33637146
719,43153516.31376043
744,0.0
833,0.0
859,0.0
885,177694981.20230938
952,0.0011509919855338868
2,3, 1, 3, 0,11, 0.00,60.00,Thursday
699,-0.3917102535651931
700,8.196209001222173
701,-0.3917102535651931
702,8.196209001222173
703,1.0
704,0.0
705,0.0
10,207112156.9752778
46,25057928.15965707
84,120458088.90362892
122,474517461.7272556
158,135529596.58379639
256,18442623.59710991
283,0.32223185370744497
307,0.32223185370744497
406,164210128.4674926
719,43153516.31376043
744,0.0
833,0.0
859,0.0
885,174777736.67596663
952,0.00112147704865559
2,3, 1, 3, 0,12, 0.00,60.00,Thursday
699,-0.3665910544012011
700,7.797433821633845
701,-0.3665910544012011
702,7.797433821633845
703,1.0
704,0.0
705,0.0
10,223160023.6241727
46,25057928.15965707
84,134357099.16173996
122,434091288.93768677
158,151167626.95884983
256,20591479.987864265
283,0.3625108354208756
307,0.3625108354208756
406,164494153.4475703
719,43153516.31376043
744,0.0
833,0.0
859,0.0
885,118429508.53126665
952,0.0011509919855338868
2,3, 1, 3, 0,13, 0.00,60.00,Thursday
699,-0.3474704705162487
700,7.511916814104424
701,-0.3474704705162487
702,7.511916814104424
703,1.0
704,0.0
705,0.0
10,211817111.9092153
46,25057928.15965707
84,125091092.32299926
122,381705429.6595404
158,140742273.37548087
256,18514575.111677056
283,0.32223185370744497
307,0.32223185370744497
406,164202684.53407354
719,43153516.31376043
744,0.0
833,0.0
859,0.0
885,76760471.74998605
952,0.00112147704865559
2,3, 1, 3, 0,14, 0.00,60.00,Thursday
699,-0.34723415970944157
700,7.508485434073563
701,-0.34723415970944157
702,7.508485434073563
703,1.0
704,0.0
705,0.0
10,200032839.91339443
46,25057928.15965707
84,115825085.48425856
122,392061144.68446829
158,130316919.7921119
256,15996309.95462642
283,0.2819528719940143
307,0.2819528719940143
406,161488743.74344174
719,43153516.31376043
744,0.0
833,0.0
859,0.0
885,100255481.14891465
952,0.0010919621117772933
2,3, 1, 3, 0,15, 0.00,60.00,Thursday
699,-0.35825189169537799
700,7.670996116742472
701,-0.35825189169537799
702,7.670996116742472
703,1.0
704,0.0
705,0.0
10,188865178.4125611
46,25057928.15965707
84,106559078.64551789
122,424231329.8288209
158,119891566.20874295
256,14094655.292563264
283,0.24167389028058373
307,0.24167389028058373
406,154345171.65834833
719,43153516.31376043
744,0.0
833,0.0
859,0.0
885,149994591.9617296
952,0.0010624471748989966
2,3, 1, 3, 0,16, 0.00,60.00,Thursday
699,-0.3902120311920052
700,8.171668728907364
701,-0.3902120311920052
702,8.171668728907364
703,1.0
704,0.0
705,0.0
10,188516518.56800363
46,25057928.15965707
84,106559078.64551789
122,460581521.18601158
158,119891566.20874295
256,13745995.448005792
283,0.24167389028058373
307,0.24167389028058373