Program Version,EnergyPlus, Version 9.1.0-fafb9d5652, YMD=2020.03.26 13:29
1,5,Environment Title[],Latitude[deg],Longitude[deg],Time Zone[],Elevation[m]
2,8,Day of Simulation[],Month[],Day of Month[],DST Indicator[1=yes 0=no],Hour[],StartMinute[],EndMinute[],DayType
3,5,Cumulative Day of Simulation[],Month[],Day of Month[],DST Indicator[1=yes 0=no],DayType  ! When Daily Report Variables Requested
4,2,Cumulative Days of Simulation[],Month[]  ! When Monthly Report Variables Requested
5,1,Cumulative Days of Simulation[] ! When Run Period Report Variables Requested
6,1,Calendar Year of Simulation[] ! When Annual Report Variables Requested
1339,1,Heating:Electricity [J] !TimeStep
1314,1,Heating:Gas [J] !TimeStep
1199,1,Cooling:Electricity [J] !TimeStep
45,1,InteriorLights:Electricity [J] !TimeStep
1123,1,ExteriorLights:Electricity [J] !TimeStep
207,1,InteriorEquipment:Electricity [J] !TimeStep
1093,1,Fans:Electricity [J] !TimeStep
1364,1,Pumps:Electricity [J] !TimeStep
1250,1,HeatRejection:Electricity [J] !TimeStep
1275,1,HeatRejection:Water [m3] !TimeStep
397,1,WaterSystems:Gas [J] !TimeStep
448,1,WaterSystems:Water [m3] !TimeStep
9,1,Electricity:Facility [J] !TimeStep
373,1,Gas:Facility [J] !TimeStep
424,1,Water:Facility [m3] !TimeStep
End of Data Dictionary
1,RUN PERIOD 1,  42.93, -78.73,  -5.00, 215.00
2,1, 1, 1, 0, 1, 0.00,60.00,Tuesday
9,717252842.1352019
45,58596598.456401038
207,351579590.7384068
373,552950360.0747525
397,0.0
424,0.1565569308449581
448,0.0
1093,15974224.488094453
1123,124269734.55483864
1199,71965735.4640481
1250,1787527.5696838708
1275,0.1565569308449581
1314,552950360.0747525
1339,0.0
1364,93079430.86372885
2,1, 1, 1, 0, 2, 0.00,60.00,Tuesday
9,534445923.74964657
45,58596598.456401038
207,351579590.7384068
373,0.0
397,0.0
424,0.0
448,0.0
1093,0.0
1123,124269734.55483864
1199,0.0
1250,0.0
1275,0.0
1314,0.0
1339,0.0
1364,0.0
2,1, 1, 1, 0, 3, 0.00,60.00,Tuesday
9,714273673.9887405
45,58596598.456401038
207,351579590.7384068
373,811765168.1089313
397,0.0
424,0.16978267859589853
448,0.0
1093,15974224.488094453
1123,124269734.55483864
1199,68803174.318753
1250,1686138.924234987
1275,0.16978267859589853
1314,811765168.1089313
1339,0.0
1364,93364212.50801161
2,1, 1, 1, 0, 4, 0.00,60.00,Tuesday
9,534445923.74964657
45,58596598.456401038
207,351579590.7384068
373,0.0
397,0.0
424,0.0
448,0.0
1093,0.0
1123,124269734.55483864
1199,0.0
1250,0.0
1275,0.0
1314,0.0
1339,0.0
1364,0.0
2,1, 1, 1, 0, 5, 0.00,60.00,Tuesday
9,701686681.9213533
45,58596598.456401038
207,351579590.7384068
373,626992395.7335905
397,7222429.215594223
424,0.1408512279718297
448,0.0
1093,16646944.22103537
1123,124269734.55483864
1199,71216786.44231133
1250,1679052.2982565226
1275,0.1408512279718297
1314,619769966.5179963
1339,0.0
1364,77697975.21010365
2,1, 1, 1, 0, 6, 0.00,60.00,Tuesday
9,750534874.5434382
45,117193196.91280207
207,371362721.03565779
373,287114719.2884409
397,0.0
424,0.14075957753307215
448,0.0
1093,3907132.6683537655
1123,124269734.55483864
1199,39884515.44202228
1250,1146276.4125945843
1275,0.14075957753307215
1314,287114719.2884409
1339,0.0
1364,92771297.5171691
2,1, 1, 1, 0, 7, 0.00,60.00,Tuesday
9,959283671.6723474
45,117193196.91280207
207,371362721.03565779
373,2502999910.22604
397,45661035.218924168
424,0.4021771737115883
448,0.08207536775802942
1093,22644405.45000778
1123,131118192.48345293
1199,216215711.02059023
1250,4544546.953092174
1275,0.32010180595355888
1314,2457338875.007116
1339,0.0
1364,96204897.8167444
2,1, 1, 1, 0, 8, 0.00,60.00,Tuesday
9,993656357.6975548
45,351579590.7384062
207,465498976.8082448
373,3271546924.488524
397,70775234.1679991
424,0.22277599820036549
448,0.22277599820036549
1093,40312929.62428206
1123,131118192.48345293
1199,0.0
1250,0.0
1275,0.0
1314,3200771690.3205249
1339,0.0
1364,5146668.043168891
2,1, 1, 1, 0, 9, 0.00,60.00,Tuesday
9,1888789255.9458097
45,1054738772.2152186
207,791054079.1614153
373,2101928480.2255512
397,111354997.8700484
424,0.41037683879014699
448,0.41037683879014699
1093,40312929.62428206
1123,0.0
1199,0.0
1250,0.0
1275,0.0
1314,1990573482.3555027
1339,0.0
1364,2683474.944893112
2,1, 1, 1, 0,10, 0.00,60.00,Tuesday
9,1888115148.0470789
45,1054738772.2152186
207,791054079.1614153
373,1767138217.4647289
397,132316182.23827404
424,0.44555199640073109
448,0.44555199640073109
1093,40312929.62428206
1123,0.0
1199,0.0
1250,0.0
1275,0.0
1314,1634822035.2264548
1339,0.0
1364,2009367.046162177
2,1, 1, 1, 0,11, 0.00,60.00,Tuesday
9,1888070380.333841
45,1054738772.2152186
207,791054079.1614153
373,1765244983.6601389
397,127059123.66740301
424,0.45727704893759238
448,0.45727704893759238
1093,40312929.62428206
1123,0.0
1199,0.0
1250,0.0
1275,0.0
1314,1638185859.9927359
1339,0.0
1364,1964599.3329244822
2,1, 1, 1, 0,12, 0.00,60.00,Tuesday
9,1958632606.1532939
45,1054738772.2152186
207,861525962.5669823
373,1859612581.5564228
397,156226779.87309668
424,0.5510774692324831
448,0.5510774692324831
1093,40312929.62428206
1123,0.0
1199,0.0
1250,0.0
1275,0.0
1314,1703385801.683326
1339,0.0
1364,2054941.746810558
2,1, 1, 1, 0,13, 0.00,60.00,Tuesday
9,1870557891.7460063
45,1054738772.2152186
207,773631064.8823805
373,1754202713.4544817
397,178836115.42615093
424,0.6683279946010965
448,0.6683279946010965
1093,40312929.62428206
1123,0.0
1199,0.0
1250,0.0
1275,0.0
1314,1575366598.0283306
1339,0.0
1364,1875125.024125683
2,1, 1, 1, 0,14, 0.00,60.00,Tuesday
9,1887604943.252545
45,1054738772.2152186
207,791054079.1614153
373,1479082891.0422726
397,176506062.15685226
424,0.6331528369905125
448,0.6331528369905125
1093,40312929.62428206
1123,0.0
1199,0.0
1250,0.0
1275,0.0
1314,1302576828.8854204
1339,0.0
1364,1499162.2516285489
2,1, 1, 1, 0,15, 0.00,60.00,Tuesday
9,1887432858.4357994
45,1054738772.2152186
207,791054079.1614153
373,1289706793.8197184
397,117814606.64717573
424,0.3986517862532857
448,0.3986517862532857
1093,40312929.62428206
1123,0.0
1199,0.0
1250,0.0
1275,0.0
1314,1171892187.1725426
1339,0.0
1364,1327077.4348827427
2,1, 1, 1, 0,16, 0.00,60.00,Tuesday
9,1887611806.2745863
45,1054738772.2152186
207,791054079.1614153
373,1432427251.7500056
397,113039947.63043067
424,0.38692673371642435
448,0.38692673371642435
1093,40312929.62428206
1123,0.0
1199,0.0
1250,0.0
1275,0.0
1314,1319387304.1195749
1339,0.0
1364,1506025.2736695465
2,1, 1, 1, 0,17, 0.00,60.00,Tuesday
9,1987042481.7862654
45,1054738772.2152186
207,890490964.3431625
373,1454929801.0270525
397,141822772.32441435
424,0.5159023116218992
448,0.5159023116218992
1093,40312929.62428206
1123,0.0
1199,0.0
1250,0.0
1275,0.0
1314,1313107028.7026382
1339,0.0
1364,1499815.603601876
2,1, 1, 1, 0,18, 0.00,60.00,Tuesday
9,1233378225.9937692
45,585965984.5640103
207,473740119.6083498
373,1946428785.529039
397,92982896.27882707
424,0.304851365958395
448,0.304851365958395
1093,40312929.62428206
1123,131118192.48345293
1199,0.0
1250,0.0
1275,0.0
1314,1853445889.250212
1339,0.0
1364,2240999.713674137
2,1, 1, 1, 0,19, 0.00,60.00,Tuesday
9,1171351458.431134
45,351579590.7384062
207,351579590.7384068
373,1782596112.0358022
397,77383275.48048948
424,0.5630568853268622
448,0.24622610327408815
1093,19645674.835521576
1123,131118192.48345293
1199,225535630.42198385
1250,4779300.79227227
1275,0.31683078205277406
1314,1705212836.5553127
1339,0.0
1364,87113478.42109041
2,1, 1, 1, 0,20, 0.00,60.00,Tuesday
9,834331837.0009368
45,351579590.7384062
207,351579590.7384068
373,63180965.23008494
397,63180965.23008494
424,0.17587578805292015
448,0.17587578805292015
1093,0.0
1123,131118192.48345293
1199,0.0
1250,0.0
1275,0.0
1314,0.0
1339,0.0
1364,54463.04067100615
2,1, 1, 1, 0,21, 0.00,60.00,Tuesday
9,1087070357.9688676
45,234386393.82560415
207,351579590.7384068
373,2146781090.305156
397,58789108.052153747
424,0.5416587482528716
448,0.19932589312664279
1093,22644405.450007775
1123,131118192.48345293
1199,246621535.48029918
1250,5153065.542967875
1275,0.3423328551262289
1314,2087991982.2530022
1339,0.0
1364,95567174.44812869
2,1, 1, 1, 0,22, 0.00,60.00,Tuesday
9,812495392.2454902
45,234386393.82560415
207,364121470.5916127
373,171032464.6289905
397,42728358.21364397
424,0.16933634534959833
448,0.09380042029489075
1093,2232647.239059294
1123,131118192.48345293
1199,26781876.10574419
1250,790282.5315753453
1275,0.07553592505470758
1314,128304106.41534654
1339,0.0
1364,53064529.46844159
2,1, 1, 1, 0,23, 0.00,60.00,Tuesday
9,716279155.865908
45,117193196.91280207
207,351579590.7384068
373,286883269.03266766
397,29422296.826073365
424,0.17008886896396278
448,0.05862526268430671
1093,8752633.99958443
1123,131118192.48345293
1199,47283915.11495568
1250,1129233.215703961
1275,0.11146360627965606
1314,257460972.20659427
1339,0.0
1364,59222393.40100223
2,1, 1, 1, 0,24, 0.00,60.00,Tuesday
9,541348844.7189318
45,58596598.456401038
207,351579590.7384068
373,27930001.75941818
397,27930001.75941818
424,0.05862526268430671
448,0.05862526268430671
1093,0.0
1123,131118192.48345293
1199,0.0
1250,0.0
1275,0.0
1314,0.0
1339,0.0
1364,54463.04067100613
2,2, 1, 2, 0, 1, 0.00,60.00,Wednesday
9,717294406.3805015
45,58596598.456401038
207,351579590.7384068
373,591725554.2088565
397,0.0
424,0.16908928381788486
448,0.0
1093,15974224.488094453
1123,124269734.55483864
1199,72029582.43703744
1250,1722965.3427784909
1275,0.16908928381788486
1314,591725554.2088565
1339,0.0
1364,93121710.36294464
2,2, 1, 2, 0, 2, 0.00,60.00,Wednesday
9,534445923.74964657
45,58596598.456401038
207,351579590.7384068
373,7222525.3455653409
397,7222525.3455653409
424,0.0
448,0.0
1093,0.0
1123,124269734.55483864
1199,0.0
1250,0.0
1275,0.0
1314,0.0
1339,0.0
1364,0.0
2,2, 1, 2, 0, 3, 0.00,60.00,Wednesday
9,727022271.6679661
45,58596598.456401038
207,351579590.7384068
373,1440480013.1427522
397,0.0
424,0.15556253548352223
448,0.0
1093,19679880.5780463
1123,124269734.55483864
1199,76883179.97948817
1250,1813529.75621036
1275,0.15556253548352223
1314,1440480013.1427522
1339,0.0
1364,94199757.60457477
2,2, 1, 2, 0, 4, 0.00,60.00,Wednesday
9,534445923.74964657
45,58596598.456401038
207,351579590.7384068
373,0.0
397,0.0
424,0.0
448,0.0
1093,0.0
1123,124269734.55483864
1199,0.0
1250,0.0
1275,0.0
1314,0.0
1339,0.0
1364,0.0
2,2, 1, 2, 0, 5, 0.00,60.00,Wednesday
9,744793401.9905593
45,58596598.456401038
207,351579590.7384068
373,1449738939.2901569
397,0.0
424,0.33159152616471146
448,0.0
1093,22644405.450007779
1123,124269734.55483864
1199,91390543.47387783
1250,2076646.5160688447
1275,0.33159152616471146
1314,1449738939.2901569
1339,0.0
1364,94235882.80095858
2,2, 1, 2, 0, 6, 0.00,60.00,Wednesday
9,750132408.3923249
45,117193196.91280207
207,371362721.03565779
373,387730131.17017528
397,0.0
424,0.11735519687263226
448,0.0
1093,3907132.6683537645
1123,124269734.55483864
1199,39350785.63758308
1250,1125931.7999762856
1275,0.11735519687263226
1314,387730131.17017528
1339,0.0
1364,92922905.78311345
2,2, 1, 2, 0, 7, 0.00,60.00,Wednesday
9,897200660.3926829
45,117193196.91280207
207,371362721.03565779
373,2532332271.2404358
397,47497661.83336276
424,0.3281586469743554
448,0.08207536775802942
1093,22644405.45000778
1123,131118192.48345293
1199,155107191.92932955
1250,3334388.954721676
1275,0.24608327921632595
1314,2484834609.407073
1339,0.0
1364,96440563.62671118
2,2, 1, 2, 0, 8, 0.00,60.00,Wednesday
9,994346174.6162541
45,351579590.7384062
207,465498976.8082448
373,3549901697.675077
397,70707410.30610664
424,0.22277599820036549
448,0.22277599820036549
1093,40312929.62428206
1123,131118192.48345293
1199,0.0
1250,0.0
1275,0.0
1314,3479194287.3689706
1339,0.0
1364,5836484.961868123
2,2, 1, 2, 0, 9, 0.00,60.00,Wednesday
9,1890137276.098692
45,1054738772.2152186
207,791054079.1614153
373,2747422050.4244387
397,116794478.65944782
424,0.41037683879014699
448,0.41037683879014699
1093,40312929.62428206
1123,0.0
1199,0.0
1250,0.0
1275,0.0
1314,2630627571.764991
1339,0.0
1364,4031495.0977753398
2,2, 1, 2, 0,10, 0.00,60.00,Wednesday
9,1889334863.4151333
45,1054738772.2152186
207,791054079.1614153
373,2402446375.915422
397,130083024.44219214
424,0.44555199640073109
448,0.44555199640073109
1093,40312929.62428206
1123,0.0
1199,0.0
1250,0.0
1275,0.0
1314,2272363351.47323
1339,0.0
1364,3229082.4142165526
2,2, 1, 2, 0,11, 0.00,60.00,Wednesday
9,1888910884.8280447
45,1054738772.2152186
207,791054079.1614153
373,2224070192.9978125
397,125545139.32330153
424,0.45727704893759238
448,0.45727704893759238
1093,40312929.62428206
1123,0.0
1199,0.0
1250,0.0
1275,0.0
1314,2098525053.674511
1339,0.0
1364,2805103.8271279765
2,2, 1, 2, 0,12, 0.00,60.00,Wednesday
9,1958779498.2869836
45,1054738772.2152186
207,861525962.5669823
373,1908419146.5234733
397,154625394.84118987
424,0.5510774692324831
448,0.5510774692324831
1093,40312929.62428206
1123,0.0
1199,0.0
1250,0.0
1275,0.0
1314,1753793751.6822835
1339,0.0
1364,2201833.880500319
2,2, 1, 2, 0,13, 0.00,60.00,Wednesday
9,1870970571.3910297
45,1054738772.2152186
207,773631064.8823805
373,2024108872.3695722
397,183654268.3909531
424,0.6683279946010965
448,0.6683279946010965
1093,40312929.62428206
1123,0.0
1199,0.0
1250,0.0
1275,0.0
1314,1840454603.978619
1339,0.0
1364,2287804.669149089
2,2, 1, 2, 0,14, 0.00,60.00,Wednesday
9,1888209804.981057
45,1054738772.2152186
207,791054079.1614153
373,1885749490.0340193
397,173518448.69368965
424,0.6331528369905125
448,0.6331528369905125
1093,40312929.62428206
1123,0.0
1199,0.0
1250,0.0
1275,0.0
1314,1712231041.3403297
1339,0.0
1364,2104023.9801404594
2,2, 1, 2, 0,15, 0.00,60.00,Wednesday
9,1887871865.5982733
45,1054738772.2152186
207,791054079.1614153
373,1601466057.3516589
397,122543674.40871781
424,0.3986517862532857
448,0.3986517862532857
1093,40312929.62428206
1123,0.0
1199,0.0
1250,0.0
1275,0.0
1314,1478922382.942941
1339,0.0
1364,1766084.5973566056
2,2, 1, 2, 0,16, 0.00,60.00,Wednesday
9,1887834256.6864656
45,1054738772.2152186
207,791054079.1614153
373,1570499962.696255
397,108686679.8483574
424,0.38692673371642435
448,0.38692673371642435
1093,40312929.62428206
1123,0.0
1199,0.0
1250,0.0
1275,0.0
1314,1461813282.8478976
1339,0.0
1364,1728475.685548957
2,2, 1, 2, 0,17, 0.00,60.00,Wednesday
9,1987366025.52705
45,1054738772.2152186
207,890490964.3431625
373,1675487224.0267335
397,142431332.112888
424,0.5159023116218992
448,0.5159023116218992
1093,40312929.62428206
1123,0.0
1199,0.0
1250,0.0
1275,0.0
1314,1533055891.9138454
1339,0.0
1364,1823359.34438636
2,2, 1, 2, 0,18, 0.00,60.00,Wednesday
9,1233772286.8130048
45,585965984.5640103
207,473740119.6083498
373,2164241158.7559025
397,92842288.36977744
424,0.304851365958395
448,0.304851365958395
1093,40312929.62428206
1123,131118192.48345293
1199,0.0
1250,0.0
1275,0.0
1314,2071398870.386125
1339,0.0
1364,2635060.532909819
2,2, 1, 2, 0,19, 0.00,60.00,Wednesday
9,1150946649.6962014
45,351579590.7384062
207,351579590.7384068
373,1481931836.3204163
397,83736045.17948704
424,0.540453395323372
448,0.24622610327408818
1093,18646097.96402617
1123,131118192.48345293
1199,209527650.18172298
1250,4438074.434189685
1275,0.29422729204928385
1314,1398195791.1409293
1339,0.0
1364,84057453.15599634
2,2, 1, 2, 0,20, 0.00,60.00,Wednesday
9,834331837.0009368
45,351579590.7384062
207,351579590.7384068
373,57343363.96534029
397,57343363.96534029
424,0.17587578805292015
448,0.17587578805292015
1093,0.0
1123,131118192.48345293
1199,0.0
1250,0.0
1275,0.0
1314,0.0
1339,0.0
1364,54463.04067100615
2,2, 1, 2, 0,21, 0.00,60.00,Wednesday
9,1086052405.7908767
45,234386393.82560415
207,351579590.7384068
373,2166681355.3124024
397,64034192.35576467
424,0.5350211771453861
448,0.19932589312664279
1093,22644405.450007775
1123,131118192.48345293
1199,245745702.60984553
1250,5054501.607417058
1275,0.3356952840187434
1314,2102647162.9566377
1339,0.0
1364,95523619.07614225
2,2, 1, 2, 0,22, 0.00,60.00,Wednesday
9,820361179.3763716
45,234386393.82560415
207,364121470.5916127
373,186012797.16841597
397,38122069.15185393
424,0.18580045066788715
448,0.09380042029489076
1093,2441957.917721103
1123,131118192.48345293
1199,29409053.433768497
1250,841146.8784676245
1275,0.09200003037299637
1314,147890728.01656205
1339,0.0
1364,58042964.24574454
2,2, 1, 2, 0,23, 0.00,60.00,Wednesday
9,666801429.4317405
45,117193196.91280207
207,351579590.7384068
373,118695461.69271848
397,32724518.871172549
424,0.1265137858067745
448,0.05862526268430669
1093,3646189.2344347687
1123,131118192.48345293
1199,21452269.682667894
1250,548303.7024943485
1275,0.0678885231224678
1314,85970942.82154593
1339,0.0
1364,41263686.67748184
2,2, 1, 2, 0,24, 0.00,60.00,Wednesday
9,688666680.1652192
45,58596598.456401038
207,351579590.7384068
373,230321166.4802113
397,24530746.8271484
424,0.208728955467529
448,0.05862526268430672
1093,7770298.7106162239
1123,131118192.48345293
1199,45645712.41735564
1250,1186672.6975301819
1275,0.15010369278322228
1314,205790419.65306289
1339,0.0
1364,92769614.66145654
2,3, 1, 3, 0, 1, 0.00,60.00,Thursday
9,679720099.4525404
45,58596598.456401038
207,351579590.7384068
373,599884392.897758
397,7221006.861816698
424,0.16101388969000283
448,0.0
1093,8203925.777478231
1123,124269734.55483864
1199,42823262.53690883
1250,1107546.2418210617
1275,0.16101388969000283
1314,592663386.0359414
1339,0.0
1364,93139441.1466857
2,3, 1, 3, 0, 2, 0.00,60.00,Thursday
9,673419006.1869803
45,58596598.456401038
207,351579590.7384068
373,464583653.269023
397,0.0
424,0.15523304045318327
448,0.0
1093,7770298.710616225
1123,124269734.55483864
1199,37210458.86746434
1250,1001881.1255208618
1275,0.15523304045318327
1314,464583653.269023
1339,0.0
1364,92990443.73373237
2,3, 1, 3, 0, 3, 0.00,60.00,Thursday
9,675516294.6208379
45,58596598.456401038
207,351579590.7384068
373,411831977.43445786
397,0.0
424,0.13973369956631916
448,0.0
1093,8203925.777478229
1123,124269734.55483864
1199,38929800.96796062
1250,1024336.1310060169
1275,0.13973369956631916
1314,411831977.43445786
1339,0.0
1364,92912307.99474675
2,3, 1, 3, 0, 4, 0.00,60.00,Thursday
9,709548314.8739824
45,58596598.456401038
207,351579590.7384068
373,832514885.9225977
397,0.0
424,0.1802834508034928
448,0.0
1093,14440479.672529545
1123,124269734.55483864
1199,65779385.633441317
1250,1514876.3712549313
1275,0.1802834508034928
1314,832514885.9225977
1339,0.0
1364,93367649.44710997
2,3, 1, 3, 0, 5, 0.00,60.00,Thursday
9,659509457.8722001
45,58596598.456401038
207,351579590.7384068
373,1007071203.3003093
397,0.0
424,0.14206318913009428
448,0.0
1093,8203925.777478229
1123,124269734.55483864
1199,32608588.074622334
1250,863455.4998127805
1275,0.14206318913009428
1314,1007071203.3003093
1339,0.0
1364,83387564.77064036
2,3, 1, 3, 0, 6, 0.00,60.00,Thursday
9,941658316.1978799
45,117193196.91280207
207,371362721.03565779
373,2297504933.6211326
397,7221989.056342004
424,0.3118323326898991
448,0.0
1093,25648645.618144879
1123,124269734.55483864
1199,203203237.18937654
1250,3863058.7750425988
1275,0.3118323326898991
1314,2290282944.5647904
1339,0.0
1364,96117722.1120171
2,3, 1, 3, 0, 7, 0.00,60.00,Thursday
9,753329325.3950155
45,117193196.91280207
207,371362721.03565779
373,1040758915.8286303
397,45069105.12627892
424,0.24593107792425313
448,0.08207536775802942
1093,8203925.777478229
1123,131118192.48345293
1199,40717094.91065054
1250,1047297.9461676839
1275,0.1638557101662237
1314,995689810.7023515
1339,0.0
1364,83686896.32880618
2,3, 1, 3, 0, 8, 0.00,60.00,Thursday
9,995343382.5624839
45,351579590.7384062
207,465498976.8082448
373,3917872846.9956057
397,69830243.7122582
424,0.2227759982003655
448,0.2227759982003655
1093,40312929.62428206
1123,131118192.48345293
1199,0.0
1250,0.0
1275,0.0
1314,3848042603.283347
1339,0.0
1364,6833692.9080980089
2,3, 1, 3, 0, 9, 0.00,60.00,Thursday
9,1891555012.3280736
45,1054738772.2152186
207,791054079.1614153
373,3290245743.719516
397,113813068.5910488
424,0.4103768387901469
448,0.4103768387901469
1093,40312929.62428207
1123,0.0
1199,0.0
1250,0.0
1275,0.0
1314,3176432675.128467
1339,0.0
1364,5449231.327157019
2,3, 1, 3, 0,10, 0.00,60.00,Thursday
9,1891560002.186354
45,1054738772.2152186
207,791054079.1614153
373,3285771670.695011
397,129189800.5924626
424,0.44555199640073109
448,0.44555199640073109
1093,40312929.62428206
1123,0.0
1199,0.0
1250,0.0
1275,0.0
1314,3156581870.1025488
1339,0.0
1364,5454221.1854374
2,3, 1, 3, 0,11, 0.00,60.00,Thursday
9,1891228299.6059533
45,1054738772.2152186
207,791054079.1614153
373,3119402217.1978976
397,130998743.40935777
424,0.45727704893759238
448,0.45727704893759238
1093,40312929.62428206
1123,0.0
1199,0.0
1250,0.0
1275,0.0
1314,2988403473.78854
1339,0.0
1364,5122518.6050367369
2,3, 1, 3, 0,12, 0.00,60.00,Thursday
9,1961136445.5532215
45,1054738772.2152186
207,861525962.5669823
373,2921719254.9473707
397,156470856.70377539
424,0.5510774692324831
448,0.5510774692324831
1093,40312929.62428206
1123,0.0
1199,0.0
1250,0.0
1275,0.0
1314,2765248398.243595
1339,0.0
1364,4558781.146738268
2,3, 1, 3, 0,13, 0.00,60.00,Thursday
9,1873633826.4233123
45,1054738772.2152186
207,773631064.8823805
373,3112537478.439269
397,177353293.731469
424,0.6683279946010965
448,0.6683279946010965
1093,40312929.62428206
1123,0.0
1199,0.0
1250,0.0
1275,0.0
1314,2935184184.7078
1339,0.0
1364,4951059.701431543
2,3, 1, 3, 0,14, 0.00,60.00,Thursday
9,1890808090.4638549
45,1054738772.2152186
207,791054079.1614153
373,2986558922.665559
397,180831241.44838647
424,0.6331528369905125
448,0.6331528369905125
1093,40312929.62428206
1123,0.0
1199,0.0
1250,0.0
1275,0.0
1314,2805727681.217172
1339,0.0
1364,4702309.46293832
2,3, 1, 3, 0,15, 0.00,60.00,Thursday
9,1890467825.860635
45,1054738772.2152186
207,791054079.1614153
373,2767294076.382508
397,110558250.34046403
424,0.3986517862532857
448,0.3986517862532857
1093,40312929.62428206
1123,0.0
1199,0.0
1250,0.0
1275,0.0
1314,2656735826.0420439
1339,0.0
1364,4362044.859718505
2,3, 1, 3, 0,16, 0.00,60.00,Thursday
9,1890234802.845267
45,1054738772.2152186
207,791054079.1614153
373,2682421224.7573359
397,118860790.39702504
424,0.38692673371642435
448,0.38692673371642435
1093,40312929.62428206
1123,0.0
1199,0.0
1250,0.0
1275,0.0
1314,2563560434.3603107
1339,0.0
1364,4129021.8443505836
2,3, 1, 3, 0,17, 0.00,60.00,Thursday
9,1989861225.8478859
45,1054738772.2152186
207,890490964.3431625
373,2779960261.8278009
397,144713149.0379643
424,0.5159023116218992
448,0.5159023116218992
1093,40312929.62428206
1123,0.0
1199,0.0
1250,0.0
1275,0.0
1314,2635247112.7898366
1339,0.0
1364,4318559.665222402
2,3, 1, 3, 0,18, 0.00,60.00,Thursday
9,1236712775.1720212
45,585965984.5640103
207,473740119.6083498
373,3284168330.831428
397,92939518.41795527
424,0.30485136595839498
448,0.30485136595839498
1093,40312929.62428206
1123,131118192.48345293
1199,0.0
1250,0.0
1275,0.0
1314,3191228812.4134728
1339,0.0
1364,5575548.89192627
2,3, 1, 3, 0,19, 0.00,60.00,Thursday
9,1176946374.865665
45,351579590.7384062
207,351579590.7384068
373,2083403637.2569535
397,73655296.66855587
424,0.5579437319232526
448,0.24622610327408815
1093,21211050.711660208
1123,131118192.48345293
1199,227902951.0465986
1250,4000339.644035712
1275,0.3117176286491645
1314,2009748340.5883976
1339,0.0
1364,89554659.50310423
2,3, 1, 3, 0,20, 0.00,60.00,Thursday
9,834331837.0009368
45,351579590.7384062
207,351579590.7384068
373,57127450.190463628
397,57127450.190463628
424,0.17587578805292015
448,0.17587578805292015
1093,0.0
1123,131118192.48345293
1199,0.0
1250,0.0
1275,0.0
1314,0.0
1339,0.0
1364,54463.04067100615
2,3, 1, 3, 0,21, 0.00,60.00,Thursday
9,1113175359.7630172
45,234386393.82560415
207,351579590.7384068
373,2387479583.388841
397,68633937.78132507
424,0.5513294287764126
448,0.1993258931266429
1093,26551538.11836154
1123,131118192.48345293
1199,268692703.15393409
1250,4705163.165885087
1275,0.35200353564976968
1314,2318845645.6075165
1339,0.0
1364,96141778.27737277
2,3, 1, 3, 0,22, 0.00,60.00,Thursday
9,729680519.9413406
45,234386393.82560415
207,364121470.5916127
373,38406729.58918933
397,38406729.58918933
424,0.09380042029489075
448,0.09380042029489075
1093,0.0
1123,131118192.48345293
1199,0.0
1250,0.0
1275,0.0
1314,0.0
1339,0.0
1364,54463.040671006136
2,3, 1, 3, 0,23, 0.00,60.00,Thursday
9,719463468.3849582
45,117193196.91280207
207,351579590.7384068
373,357144840.6556347
397,28804605.526303825
424,0.18340450735664449
448,0.05862526268430671
1093,9459024.791458633
1123,131118192.48345293
1199,49732903.5228787
1250,1054693.8572857753
1275,0.12477924467233778
1314,328340235.1293309
1339,0.0
1364,59325866.078673299
2,3, 1, 3, 0,24, 0.00,60.00,Thursday
9,541348844.7189318
45,58596598.456401038
207,351579590.7384068
373,32763106.131159959
397,32763106.131159959
424,0.05862526268430671
448,0.05862526268430671
1093,0.0
1123,131118192.48345293
1199,0.0
1250,0.0
1275,0.0
1314,0.0
1339,0.0
1364,54463.040671006136
2,4, 1, 4, 0, 1, 0.00,60.00,Friday
9,732237849.2832778
45,58596598.456401038
207,351579590.7384068
373,1418227678.2485004
397,0.0
424,0.19508528688200206
448,0.0
1093,19309314.969051117
1123,124269734.55483864
1199,82582326.00970401
1250,1633261.537898466
1275,0.19508528688200206
1314,1418227678.2485004
1339,0.0
1364,94267023.01697767
2,4, 1, 4, 0, 2, 0.00,60.00,Friday
9,534445923.74964657
45,58596598.456401038
207,351579590.7384068
373,0.0
397,0.0
424,0.0
448,0.0
1093,0.0
1123,124269734.55483864
1199,0.0
1250,0.0
1275,0.0
1314,0.0
1339,0.0
1364,0.0
2,4, 1, 4, 0, 3, 0.00,60.00,Friday
9,745618547.931915
45,58596598.456401038
207,351579590.7384068
373,1385542446.2868622
397,0.0
424,0.15750074792495068
448,0.0
1093,22644405.450007779
1123,124269734.55483864
1199,92611743.99447616
1250,1762524.4921836318
1275,0.15750074792495068
1314,1385542446.2868622
1339,0.0
1364,94153950.24560091
2,4, 1, 4, 0, 4, 0.00,60.00,Friday
9,534445923.74964657
45,58596598.456401038
207,351579590.7384068
373,7222477.157477703
397,7222477.157477703
424,0.0
448,0.0
1093,0.0
1123,124269734.55483864
1199,0.0
1250,0.0
1275,0.0
1314,0.0
1339,0.0
1364,0.0
2,4, 1, 4, 0, 5, 0.00,60.00,Friday
9,740061564.2938714
45,58596598.456401038
207,351579590.7384068
373,1910777646.2344917
397,0.0
424,0.11813026431965193
448,0.0
1093,22644405.450007775
1123,124269734.55483864
1199,86396562.1822531
1250,1606389.5238631946
1275,0.11813026431965193
1314,1910777646.2344917
1339,0.0
1364,94968283.3881009
2,4, 1, 4, 0, 6, 0.00,60.00,Friday
9,832361803.8376942
45,117193196.91280207
207,371362721.03565779
373,908242972.3185734
397,0.0
424,0.1358341145064924
448,0.0
1093,11208165.945615329
1123,124269734.55483864
1199,112580934.45580718
1250,2009199.778396648
1275,0.1358341145064924
1314,908242972.3185734
1339,0.0
1364,93737851.1545766
2,4, 1, 4, 0, 7, 0.00,60.00,Friday
9,865251886.2789329
45,117193196.91280207
207,371362721.03565779
373,2531913462.360433
397,46055806.05568087
424,0.2453876862474198
448,0.08207536775802942
1093,22644405.45000778
1123,131118192.48345293
1199,124207609.34509924
1250,2156106.958869262
1275,0.1633123184893904
1314,2485857656.3047525
1339,0.0
1364,96569654.09304403
2,4, 1, 4, 0, 8, 0.00,60.00,Friday
9,999954533.2990759
45,351579590.7384062
207,465498976.8082448
373,4946177973.571231
397,70881841.52502975
424,0.2227759982003655
448,0.2227759982003655
1093,40312929.62428206
1123,131118192.48345293
1199,0.0
1250,0.0
1275,0.0
1314,4875296132.046201
1339,0.0
1364,11444843.64468995
2,4, 1, 4, 0, 9, 0.00,60.00,Friday
9,1894981587.479417
45,1054738772.2152186
207,791054079.1614153
373,4053377216.1162426
397,113204546.45226307
424,0.41037683879014699
448,0.41037683879014699
1093,40312929.62428206
1123,0.0
1199,0.0
1250,0.0
1275,0.0
1314,3940172669.6639797
1339,0.0
1364,8875806.47850061
2,4, 1, 4, 0,10, 0.00,60.00,Friday
9,1892756672.712221
45,1054738772.2152186
207,791054079.1614153
373,3541343307.0024139
397,133521154.99713733
424,0.445551996400731
448,0.445551996400731
1093,40312929.62428206
1123,0.0
1199,0.0
1250,0.0
1275,0.0
1314,3407822152.005276
1339,0.0
1364,6650891.711304359
2,4, 1, 4, 0,11, 0.00,60.00,Friday
9,1891705584.733549
45,1054738772.2152186
207,791054079.1614153
373,3225135495.5655786
397,125363645.95819736
424,0.45727704893759238
448,0.45727704893759238
1093,40312929.62428206
1123,0.0
1199,0.0
1250,0.0
1275,0.0
1314,3099771849.607381
1339,0.0
1364,5599803.732632522
2,4, 1, 4, 0,12, 0.00,60.00,Friday
9,1961789452.0925415
45,1054738772.2152186
207,861525962.5669823
373,3146223790.802512
397,157210754.02807356
424,0.5510774692324831
448,0.5510774692324831
1093,40312929.62428206
1123,0.0
1199,0.0
1250,0.0
1275,0.0
1314,2989013036.774439
1339,0.0
1364,5211787.686058181
2,4, 1, 4, 0,13, 0.00,60.00,Friday
9,1874005159.258316
45,1054738772.2152186
207,773631064.8823805
373,3203457861.334836
397,179994410.9469915
424,0.6683279946010965
448,0.6683279946010965
1093,40312929.62428206
1123,0.0
1199,0.0
1250,0.0
1275,0.0
1314,3023463450.3878448
1339,0.0
1364,5322392.53643544
2,4, 1, 4, 0,14, 0.00,60.00,Friday
9,1891036045.551757
45,1054738772.2152186
207,791054079.1614153
373,3053006638.493849
397,179140026.9100127
424,0.6331528369905125
448,0.6331528369905125
1093,40312929.62428206
1123,0.0
1199,0.0
1250,0.0
1275,0.0
1314,2873866611.583836
1339,0.0
1364,4930264.55084062
2,4, 1, 4, 0,15, 0.00,60.00,Friday
9,1891212262.9414366
45,1054738772.2152186
207,791054079.1614153
373,3054799600.504233
397,114677197.70165649
424,0.3986517862532857
448,0.3986517862532857
1093,40312929.62428206
1123,0.0
1199,0.0
1250,0.0
1275,0.0
1314,2940122402.8025767
1339,0.0
1364,5106481.940519933
2,4, 1, 4, 0,16, 0.00,60.00,Friday
9,1891353122.747611
45,1054738772.2152186
207,791054079.1614153
373,3094449703.925876
397,116859192.9545153
424,0.38692673371642435
448,0.38692673371642435
1093,40312929.62428206
1123,0.0
1199,0.0
1250,0.0
1275,0.0
1314,2977590510.9713609
1339,0.0
1364,5247341.746694474
2,4, 1, 4, 0,17, 0.00,60.00,Friday
9,1990990544.6912654
45,1054738772.2152186
207,890490964.3431625
373,3191527072.545764
397,142564674.38176445
424,0.5159023116218992
448,0.5159023116218992
1093,40312929.62428206
1123,0.0
1199,0.0
1250,0.0
1275,0.0
1314,3048962398.1639997
1339,0.0
1364,5447878.508601889
2,4, 1, 4, 0,18, 0.00,60.00,Friday
9,1237173454.9802592
45,585965984.5640103
207,473740119.6083498
373,3467145093.030429
397,93118037.86716119
424,0.304851365958395
448,0.304851365958395
1093,40312929.62428206