Program Version,EnergyPlus, Version 9.1.0-fafb9d5652, YMD=2020.03.26 13:30
1,5,Environment Title[],Latitude[deg],Longitude[deg],Time Zone[],Elevation[m]
2,8,Day of Simulation[],Month[],Day of Month[],DST Indicator[1=yes 0=no],Hour[],StartMinute[],EndMinute[],DayType
3,5,Cumulative Day of Simulation[],Month[],Day of Month[],DST Indicator[1=yes 0=no],DayType  ! When Daily Report Variables Requested
4,2,Cumulative Days of Simulation[],Month[]  ! When Monthly Report Variables Requested
5,1,Cumulative Days of Simulation[] ! When Run Period Report Variables Requested
6,1,Calendar Year of Simulation[] ! When Annual Report Variables Requested
1353,1,Heating:Electricity [J] !TimeStep
1328,1,Heating:Gas [J] !TimeStep
1121,1,Cooling:Electricity [J] !TimeStep
46,1,InteriorLights:Electricity [J] !TimeStep
1134,1,ExteriorLights:Electricity [J] !TimeStep
149,1,InteriorEquipment:Electricity [J] !TimeStep
278,1,InteriorEquipment:Gas [J] !TimeStep
1093,1,Fans:Electricity [J] !TimeStep
1378,1,Pumps:Electricity [J] !TimeStep
1264,1,HeatRejection:Electricity [J] !TimeStep
1289,1,HeatRejection:Water [m3] !TimeStep
401,1,WaterSystems:Electricity [J] !TimeStep
551,1,WaterSystems:Gas [J] !TimeStep
452,1,WaterSystems:Water [m3] !TimeStep
10,1,Electricity:Facility [J] !TimeStep
242,1,Gas:Facility [J] !TimeStep
428,1,Water:Facility [m3] !TimeStep
End of Data Dictionary
1,RUN PERIOD 1,  42.93, -78.73,  -5.00, 215.00
2,1, 1, 1, 0, 1, 0.00,60.00,Tuesday
10,2168653164.994436
46,377189496.29454568
149,719514143.1308501
242,2048710383.9611304
278,268641787.1779431
401,58457969.940333459
428,1.1022636936397863
452,0.3851869369097291
551,152798057.1310839
1093,395816980.1230248
1121,456781233.7796453
1134,71850288.6634842
1264,10606933.341837703
1289,0.7170767567300572
1328,1627270539.6521035
1353,0.0
1378,78436119.72071514
2,1, 1, 1, 0, 2, 0.00,60.00,Tuesday
10,1459921382.0701915
46,377189496.29454568
149,719514143.1308501
242,421425102.97293099
278,268641787.1779431
401,58766288.77196674
428,0.3851869369097291
452,0.3851869369097291
551,152783315.79498787
1093,232572366.71067743
1121,0.0
1134,71850288.6634842
1264,0.0
1289,0.0
1328,0.0
1353,0.0
1378,28798.498667355067
2,1, 1, 1, 0, 3, 0.00,60.00,Tuesday
10,2167967652.459497
46,377189496.29454568
149,719514143.1308501
242,2031979618.7048588
278,268641787.1779431
401,58470605.23222983
428,1.1054878139841678
452,0.3851869369097291
551,155870037.54890619
1093,395816980.1230248
1121,456206825.99529626
1134,71850288.6634842
1264,10395577.28768268
1289,0.7203008770744386
1328,1607467793.9780095
1353,0.0
1378,78523735.73238392
2,1, 1, 1, 0, 4, 0.00,60.00,Tuesday
10,1461493451.4346774
46,377189496.29454568
149,719514143.1308501
242,429140968.82834926
278,268641787.1779431
401,60338358.136452499
428,0.3851869369097291
452,0.3851869369097291
551,160499181.6504061
1093,232572366.71067743
1121,0.0
1134,71850288.6634842
1264,0.0
1289,0.0
1328,0.0
1353,0.0
1378,28798.498667355067
2,1, 1, 1, 0, 5, 0.00,60.00,Tuesday
10,2169571088.1345779
46,377189496.29454568
149,719514143.1308501
242,1954817183.3886293
278,268641787.1779431
401,62425064.10930145
428,1.083923671891017
452,0.38518693690972907
551,153060986.87294189
1093,395816980.1230248
1121,453991129.7395295
1134,71850288.6634842
1264,10348638.862332825
1289,0.6987367349812881
1328,1533114409.3377443
1353,0.0
1378,78435347.21151009
2,1, 1, 1, 0, 6, 0.00,60.00,Tuesday
10,1460747703.1931813
46,377189496.29454568
149,719514143.1308501
242,421426253.93876329
278,268641787.1779431
401,59592609.89495654
428,0.3851869369097291
452,0.3851869369097291
551,152784466.76082013
1093,232572366.71067743
1121,0.0
1134,71850288.6634842
1264,0.0
1289,0.0
1328,0.0
1353,0.0
1378,28798.498667355067
2,1, 1, 1, 0, 7, 0.00,60.00,Tuesday
10,2190424714.0169036
46,377189496.29454568
149,731916144.6971036
242,1970493791.4101728
278,268641787.1779431
401,58475081.02682161
428,1.1040066204365822
452,0.3851869369097291
551,155612245.7321254
1093,395816980.1230248
1121,457177624.00163009
1134,80848391.88443214
1264,10621279.012763782
1289,0.718819683526853
1328,1546239758.5001043
1353,0.0
1378,78379716.97658219
2,1, 1, 1, 0, 8, 0.00,60.00,Tuesday
10,2706401793.228758
46,531870360.8111264
149,1353238374.5222309
242,1252956308.5127197
278,524411614.32828727
401,88992605.94206932
428,0.9674799143434921
452,0.6667262258036769
551,175550768.07213617
1093,385075262.50104728
1121,186368066.3978688
1134,80848391.88443214
1264,4319452.554830502
1289,0.3007536885398152
1328,552993926.1122964
1353,0.0
1378,75689278.61515214
2,1, 1, 1, 0, 9, 0.00,60.00,Tuesday
10,3483990981.284755
46,957366649.4600273
149,1730278095.483358
242,1236363092.539803
278,674243504.1363694
401,114085609.16269116
428,1.1124773290517403
452,0.8291290895160317
551,177393278.71037273
1093,395816980.1230248
1121,206664558.7623732
1134,0.0
1264,4335568.432928201
1289,0.28334823953570867
1328,384726309.693061
1353,0.0
1378,75443519.86035209
2,1, 1, 1, 0,10, 0.00,60.00,Tuesday
10,3505040420.3479735
46,957366649.4600273
149,1703784165.3511444
242,1076300902.977137
278,674243504.1363694
401,123733042.79557432
428,1.2490019505245048
452,0.9434917225527257
551,185845463.81080807
1093,395816980.1230248
1121,244393093.63184343
1134,0.0
1264,4714904.298050347
1289,0.30551022797177887
1328,216211935.0299597
1353,0.0
1378,75231584.68830857
2,1, 1, 1, 0,11, 0.00,60.00,Tuesday
10,3546815785.3445918
46,957366649.4600273
149,1703784165.3511444
242,1126138190.2821034
278,674243504.1363694
401,143244851.30997265
428,1.4786183461899823
452,1.1150356721077668
551,197477660.5834636
1093,395816980.1230248
1121,266201478.3045563
1134,0.0
1264,5127933.179003927
1289,0.3635826740822154
1328,254417025.5622703
1353,0.0
1378,75273727.6168615
2,1, 1, 1, 0,12, 0.00,60.00,Tuesday
10,3557297477.376819
46,957366649.4600273
149,1703784165.3511444
242,1118314814.0964354
278,674243504.1363694
401,150954462.3575579
428,1.5252194252920846
452,1.1722169886261138
551,198230948.99077974
1093,395816980.12302479
1121,268928291.60707947
1134,0.0
1264,5190406.210822325
1289,0.3530024366659707
1328,245840360.96928624
1353,0.0
1378,75256522.26716268
2,1, 1, 1, 0,13, 0.00,60.00,Tuesday
10,3547594872.428363
46,957366649.4600273
149,1703784165.3511444
242,1060418200.4952476
278,674243504.1363694
401,129806053.4200709
428,1.3523468875544938
452,1.0149683682006597
551,196096842.25801686
1093,395816980.1230248
1121,280377018.4833211
1134,0.0
1264,5244598.367226686
1289,0.337378519353834
1328,190077854.10086138
1353,0.0
1378,75199407.22354679
2,1, 1, 1, 0,14, 0.00,60.00,Tuesday
10,3596745116.137071
46,957366649.4600273
149,1703784165.3511444
242,1049109012.8373312
278,674243504.1363694
401,150546277.4876596
428,1.5596778046753653
452,1.1722169886261138
551,198252325.1635337
1093,395816980.1230248
1121,308318823.4973973
1134,0.0
1264,5709910.341329677
1289,0.3874608160492514
1328,176613183.53742818
1353,0.0
1378,75202309.87648718
2,1, 1, 1, 0,15, 0.00,60.00,Tuesday
10,3596636379.401822
46,957366649.4600273
149,1703784165.3511444
242,1029002671.6135693
278,674243504.1363694
401,143450281.56362004
428,1.4886910753726779
452,1.1150356721077668
551,197493741.29538817
1093,395816980.12302479
1121,315232166.75859096
1134,0.0
1264,5801944.79755033
1289,0.37365540326491106
1328,157265426.1818118
1353,0.0
1378,75184191.34786418
2,1, 1, 1, 0,16, 0.00,60.00,Tuesday
10,3591122189.101734
46,957366649.4600273
149,1703784165.3511444
242,1041581716.9176834
278,674243504.1363694
401,138760136.00509695
428,1.433218866562875
452,1.0578543555894198
551,187828504.27896685
1093,395816980.1230248
1121,314359804.6854206
1134,0.0
1264,5832633.392523878
1289,0.37536451097345516
1328,179509708.50234718
1353,0.0
1378,75201820.08449565
2,1, 1, 1, 0,17, 0.00,60.00,Tuesday
10,2489245570.2797896
46,454529928.552836
149,1162350039.9921873
242,1558933258.8661533
278,449495669.11658379
401,120503168.15589741
428,1.2763228289676383
452,0.9006057351639656
551,185051135.7343105
1093,395816980.1230248
1121,274288907.6418375
1134,0.0
1264,5838210.458771505
1289,0.3757170938036727
1328,924386454.0152592
1353,0.0
1378,75918335.35523558
2,1, 1, 1, 0,18, 0.00,60.00,Tuesday
10,2493438590.758985
46,454529928.552836
149,1153481748.4316269
242,1668876684.4635947
278,449495669.11658379
401,86218107.16099933
428,0.9144389737178218
452,0.5861084943130569
551,168230807.2020207
1093,395816980.1230248
1121,241092738.33594183
1134,80848391.88443214
1264,5329988.677856428
1289,0.32833047940476497
1328,1051150208.1449902
1353,0.0
1378,76120707.59226732
2,1, 1, 1, 0,19, 0.00,60.00,Tuesday
10,2434863141.001484
46,454529928.552836
149,1135856109.8599737
242,1758517430.7550307
278,449495669.11658379
401,72333145.31522462
428,0.7751670977039515
452,0.4755885219147414
551,155167898.2873997
1093,395816980.1230248
1121,214334674.60776348
1134,80848391.88443214
1264,4838845.084578259
1289,0.29957857578921018
1328,1153853863.3510473
1353,0.0
1378,76305065.57365082
2,1, 1, 1, 0,20, 0.00,60.00,Tuesday
10,2443476103.024482
46,454529928.552836
149,1148258111.4262274
242,1731500944.932085
278,449495669.11658379
401,70541309.17613322
428,0.7849103250034748
452,0.4755885219147414
551,165871973.25380925
1093,395816980.1230248
1121,212415596.2124777
1134,80848391.88443214
1264,4772123.16847071
1289,0.30932180308873338
1328,1116133302.561692
1353,0.0
1378,76293662.4808796
2,1, 1, 1, 0,21, 0.00,60.00,Tuesday
10,2415433212.1644136
46,454529928.552836
149,1135856109.8599737
242,1744708032.36311
278,449495669.11658379
401,69465416.97647877
428,0.7521619941047653
452,0.4755885219147414
551,155185057.9783429
1093,395816980.1230248
1121,198146675.9762598
1134,80848391.88443214
1264,4443856.097894354
1289,0.2765734721900239
1328,1140027305.2681835
1353,0.0
1378,76325852.69351396
2,1, 1, 1, 0,22, 0.00,60.00,Tuesday
10,2422933215.272778
46,454529928.552836
149,1149837093.876466
242,1771285697.8919595
278,449495669.11658379
401,63808966.172381
428,0.6872856533422511
452,0.3997445825690203
551,156462684.9687756
1093,395816980.1230248
1121,197317484.27907349
1134,80848391.88443214
1264,4403657.432451734
1289,0.2875410707732309
1328,1165327343.8066
1353,0.0
1378,76370712.95211305
2,1, 1, 1, 0,23, 0.00,60.00,Tuesday
10,2428572330.1772215
46,454529928.552836
149,1079271214.6962753
242,1538388668.0008722
278,402962680.76691469
401,58494628.1474112
428,0.8940963521325342
452,0.38518693690972918
551,160149928.84757114
1093,355005826.76993808
1121,334846070.50117
1134,80848391.88443214
1264,7392513.596049689
1289,0.5089094152228051
1328,975276058.3863865
1353,0.0
1378,58183756.02910897
2,1, 1, 1, 0,24, 0.00,60.00,Tuesday
10,1468921344.1460729
46,377189496.29454568
149,719514143.1308501
242,421439592.88774338
278,268641787.1779431
401,58768147.626900348
428,0.3851869369097291
452,0.3851869369097291
551,152797805.7098002
1093,232572366.71067745
1121,0.0
1134,80848391.88443214
1264,0.0
1289,0.0
1328,0.0
1353,0.0
1378,28798.498667355063
2,2, 1, 2, 0, 1, 0.00,60.00,Wednesday
10,2170949404.505996
46,377189496.29454568
149,719514143.1308501
242,2067265013.9541307
278,268641787.1779431
401,61157042.441286358
428,1.09649677552707
452,0.3851869369097291
551,152900150.88413093
1093,395816980.1230248
1121,456677222.438045
1134,71850288.6634842
1264,10262095.349383096
1289,0.711309838617341
1328,1645723075.8920565
1353,0.0
1378,78482136.06537733
2,2, 1, 2, 0, 2, 0.00,60.00,Wednesday
10,1463614077.8144673
46,377189496.29454568
149,719514143.1308501
242,425467469.6001285
278,268641787.1779431
401,62458984.51624258
428,0.385186936909729
452,0.385186936909729
551,156825682.42218537
1093,232572366.71067745
1121,0.0
1134,71850288.6634842
1264,0.0
1289,0.0
1328,0.0
1353,0.0
1378,28798.49866735258
2,2, 1, 2, 0, 3, 0.00,60.00,Wednesday
10,2167183096.6258738
46,377189496.29454568
149,719514143.1308501
242,2150353156.2645585
278,268641787.1779431
401,58487480.606524508
428,1.0781088531943884
452,0.3851869369097291
551,160032605.26173795
1093,395816980.1230248
1121,455248941.3133149
1134,71850288.6634842
1264,10254528.183979532
1289,0.6929219162846593
1328,1721678763.8248773
1353,0.0
1378,78821238.3101501
2,2, 1, 2, 0, 4, 0.00,60.00,Wednesday
10,1459941983.2697144
46,377189496.29454568
149,719514143.1308501
242,421573277.3521073
278,268641787.1779431
401,58786889.97148974
428,0.3851869369097291
452,0.3851869369097291
551,152931490.17416419
1093,232572366.71067743
1121,0.0
1134,71850288.6634842
1264,0.0
1289,0.0
1328,0.0
1353,0.0
1378,28798.498667352575
2,2, 1, 2, 0, 5, 0.00,60.00,Wednesday
10,2167346543.433921
46,377189496.29454568
149,719514143.1308501
242,2105066926.0690692
278,268641787.1779431
401,58488619.286724749
428,1.2089638272661115
452,0.3851869369097291
551,152911065.43853826
1093,395816980.1230248
1121,455577454.128088
1134,71850288.6634842
1264,10137157.521091639
1289,0.8237768903563822
1328,1683514073.4525879
1353,0.0
1378,78772404.28611186
2,2, 1, 2, 0, 6, 0.00,60.00,Wednesday
10,1462247893.2500118
46,377189496.29454568
149,719514143.1308501
242,426262769.34088948
278,268641787.1779431
401,61092799.95178704
428,0.3851869369097291
452,0.3851869369097291
551,157620982.16294638
1093,232572366.71067743
1121,0.0
1134,71850288.6634842
1264,0.0
1289,0.0
1328,0.0
1353,0.0
1378,28798.498667352575
2,2, 1, 2, 0, 7, 0.00,60.00,Wednesday
10,2193083440.3885128
46,377189496.29454568
149,731916144.6971036
242,2135634026.5645076
278,268641787.1779431
401,62492392.7780547
428,1.089617432568467
452,0.3851869369097291
551,159195373.84187258
1093,395816980.1230248
1121,455574027.332867
1134,80848391.88443214
1264,10421982.215722852
1289,0.7044304956587379
1328,1707796865.5446919
1353,0.0
1378,78824025.06276237
2,2, 1, 2, 0, 8, 0.00,60.00,Wednesday
10,2691967892.460102
46,531870360.8111264
149,1353238374.5222309
242,1283592645.492598
278,524411614.32828727
401,87391114.52569291
428,0.9325359184823541
452,0.6667262258036769
551,171605909.78368745
1093,385075262.50104728
1121,173754277.99505473
1134,80848391.88443214
1264,4035559.6756328914
1289,0.26580969267867718
1328,587575121.3806234
1353,0.0
1378,75754550.54488483
2,2, 1, 2, 0, 9, 0.00,60.00,Wednesday
10,3469246375.189164
46,957366649.4600273
149,1730278095.483358
242,1307706265.5509854
278,674243504.1363694
401,111628106.63499378
428,1.110641583048329
452,0.8291290895160317
551,175326044.12986554
1093,395816980.12302479
1121,194314185.8594119
1134,0.0
1264,4307095.922954598
1289,0.2815124935322973
1328,458136717.2847505
1353,0.0
1378,75535261.70539336
2,2, 1, 2, 0,10, 0.00,60.00,Wednesday
10,3481995331.462349
46,957366649.4600273
149,1703784165.3511444
242,1213140751.1787582
278,674243504.1363694
401,123765147.55628136
428,1.2485927922745388
452,0.9434917225527257
551,188978300.40770454
1093,395816980.1230248
1121,221182651.4871489
1134,0.0
1264,4708097.7061643139
1289,0.30510106972181308
1328,349918946.6346843
1353,0.0
1378,75371639.77855709
2,2, 1, 2, 0,11, 0.00,60.00,Wednesday
10,3514852676.319791
46,957366649.4600273
149,1703784165.3511444
242,1182333980.7621558
278,674243504.1363694
401,146066162.82593314
428,1.4201884126231046
452,1.1150356721077668
551,194155951.74029628
1093,395816980.1230248
1121,231792670.72912134
1134,0.0
1264,4711941.162098562
1289,0.3051527405153377
1328,313934524.8854901
1353,0.0
1378,75314106.66844045
2,2, 1, 2, 0,12, 0.00,60.00,Wednesday
10,3547961340.0087096
46,957366649.4600273
149,1703784165.3511444
242,1130434877.287271
278,674243504.1363694
401,148424139.8077211
428,1.5197313852263204
452,1.1722169886261138
551,206383258.30514015
1093,395816980.1230248
1121,262208505.55830033
1134,0.0
1264,5104139.410718663
1289,0.3475143966002066
1328,249808114.84576158
1353,0.0
1378,75256760.29777241
2,2, 1, 2, 0,13, 0.00,60.00,Wednesday
10,3543954818.80134
46,957366649.4600273
149,1703784165.3511444
242,1093310037.397144
278,674243504.1363694
401,136005821.36126978
428,1.3806673371188354
452,1.0149683682006597
551,187189473.46208758
1093,395816980.1230248
1121,270579274.7180125
1134,0.0
1264,5165431.65611332
1289,0.3656989689181759
1328,231877059.79868726
1353,0.0
1378,75236496.13174759
2,2, 1, 2, 0,14, 0.00,60.00,Wednesday
10,3557071237.243129
46,957366649.4600273
149,1703784165.3511444
242,1099966417.265185
278,674243504.1363694
401,145132248.487372
428,1.527860237878974
452,1.1722169886261138
551,198287417.1231745
1093,395816980.1230248
1121,274505303.7826604
1134,0.0
1264,5236463.407955177
1289,0.3556432492528602
1328,227435496.00564114
1353,0.0
1378,75229426.63094373
2,2, 1, 2, 0,15, 0.00,60.00,Wednesday
10,3566527451.161418
46,957366649.4600273
149,1703784165.3511444
242,1074669079.4030452
278,674243504.1363694
401,147372230.90048913
428,1.4541443850993539
452,1.1150356721077668
551,197526838.61877445
1093,395816980.1230248
1121,281703757.3208573
1134,0.0
1264,5279287.901582729
1289,0.3391087129915871
1328,202898736.64790137
1353,0.0
1378,75204380.10429205
2,2, 1, 2, 0,16, 0.00,60.00,Wednesday
10,3557366108.342429
46,957366649.4600273
149,1703784165.3511444
242,1079491903.524757
278,674243504.1363694
401,134790882.79867978
428,1.3992273161481806
452,1.0578543555894198
551,196757272.55839897
1093,395816980.12302479
1121,285080130.1689416
1134,0.0
1264,5319309.274070105
1289,0.3413729605587608
1328,208491126.8299886
1353,0.0
1378,75207991.16654113
2,2, 1, 2, 0,17, 0.00,60.00,Wednesday
10,2459072945.8856875
46,454529928.552836
149,1162350039.9921873
242,1585913612.3430567
278,449495669.11658379
401,120655466.02221155
428,1.2439288189421867
452,0.9006057351639656
551,185163038.14973647
1093,395816980.1230248
1121,244435101.7103951
1134,0.0
1264,5350858.10193547
1289,0.3433230837782211
1328,951254905.0767363
1353,0.0
1378,75934571.3830976
2,2, 1, 2, 0,18, 0.00,60.00,Wednesday
10,2469919973.074703
46,454529928.552836
149,1153481748.4316269
242,1711557846.6571303
278,449495669.11658379
401,89060251.12170178
428,0.8986601479552562
452,0.5861084943130569
551,162807321.0640785
1093,395816980.1230248
1121,215172330.90807406
1134,80848391.88443214
1264,4837777.568541746
1289,0.3125516536421993
1328,1099254856.476468
1353,0.0
1378,76172564.4844661
2,2, 1, 2, 0,19, 0.00,60.00,Wednesday
10,2430366511.0439984
46,454529928.552836
149,1135856109.8599737
242,1721657237.7093015
278,449495669.11658379
401,70048145.17429652
428,0.7716663702447169
452,0.4755885219147414
551,161012514.12551949
1093,395816980.1230248
1121,212220173.2521157
1134,80848391.88443214
1264,4793464.475244492
1289,0.2960778483299755
1328,1111149054.4671982
1353,0.0
1378,76253317.72207506
2,2, 1, 2, 0,20, 0.00,60.00,Wednesday
10,2427167896.131569
46,454529928.552836
149,1148258111.4262274
242,1752746764.2713524
278,449495669.11658379
401,69462005.00353194
428,0.7631556209303878
452,0.4755885219147414
551,156598755.18197099
1093,395816980.1230248
1121,197516905.7877881
1134,80848391.88443214
1264,4415305.695671294
1289,0.2875670990156464
1328,1146652339.9727975
1353,0.0
1378,76320267.65805786
2,2, 1, 2, 0,21, 0.00,60.00,Wednesday
10,2398378231.8748166
46,454529928.552836
149,1135856109.8599737
242,1772709853.076902
278,449495669.11658379
401,70893959.77538257
428,0.7267099696441776
452,0.4755885219147414
551,164661482.89995186
1093,395816980.1230248
1121,180075730.99133057
1134,80848391.88443214
1264,4015676.8013173
1289,0.2511214477294362
1328,1158552701.0603662
1353,0.0
1378,76341453.88651936
2,2, 1, 2, 0,22, 0.00,60.00,Wednesday
10,2407741061.481895
46,454529928.552836
149,1149837093.876466
242,1815437267.5105458
278,449495669.11658379
401,66317051.83545363
428,0.6784358416252041
452,0.3997445825690203
551,152930799.30031059
1093,395816980.1230248
1121,179988360.57883523
1134,80848391.88443214
1264,3971006.0464879155
1289,0.27869125905618377
1328,1213010799.0936516
1353,0.0
1378,76432248.58435938
2,2, 1, 2, 0,23, 0.00,60.00,Wednesday
10,2428561812.2271058
46,454529928.552836
149,1079271214.6962753
242,1511149744.0092569
278,402962680.76691469
401,58712261.45504969
428,0.8852815940014427
452,0.38518693690972918
551,153252645.92890758
1093,355005826.76993808
1121,334852574.02125838
1134,80848391.88443214
1264,7178539.733317747
1289,0.5000946570917135
1328,954934417.3134347
1353,0.0
1378,58163075.1139985
2,2, 1, 2, 0,24, 0.00,60.00,Wednesday
10,1468693733.9895826
46,377189496.29454568
149,719514143.1308501
242,429545026.64463916
278,268641787.1779431
401,58540537.47040988
428,0.3851869369097291
452,0.3851869369097291
551,160903239.46669603
1093,232572366.71067745
1121,0.0
1134,80848391.88443214
1264,0.0
1289,0.0
1328,0.0
1353,0.0
1378,28798.49866735257
2,3, 1, 3, 0, 1, 0.00,60.00,Thursday
10,2168473772.0307266
46,377189496.29454568
149,719514143.1308501
242,2195288892.518508
278,268641787.1779431
401,58748395.25171767
428,1.096074665404584
452,0.3851869369097291
551,155733840.24620024
1093,395816980.1230248
1121,456637452.1435646
1134,71850288.6634842
1264,9942225.81133423
1289,0.7108877284948549
1328,1770913265.0943645
1353,0.0
1378,78774790.6122055
2,3, 1, 3, 0, 2, 0.00,60.00,Thursday
10,1462585643.8980308
46,377189496.29454568
149,719514143.1308501
242,421668212.80549457
278,268641787.1779431
401,61430550.59980602
428,0.3851869369097291
452,0.3851869369097291
551,153026425.62755145
1093,232572366.71067743
1121,0.0
1134,71850288.6634842
1264,0.0
1289,0.0
1328,0.0
1353,0.0
1378,28798.498667350126
2,3, 1, 3, 0, 3, 0.00,60.00,Thursday
10,2171225557.7345097
46,377189496.29454568
149,719514143.1308501
242,2067514827.471049
278,268641787.1779431
401,62226118.85923655
428,1.0743636783673157
452,0.3851869369097291
551,154890167.71608479
1093,395816980.1230248
1121,456128832.415195
1134,71850288.6634842
1264,9850843.022835335
1289,0.6891767414575865
1328,1643982872.5770212
1353,0.0
1378,78648855.22533854
2,3, 1, 3, 0, 4, 0.00,60.00,Thursday
10,1459710781.6828616
46,377189496.29454568
149,719514143.1308501
242,429929842.42825868
278,268641787.1779431
401,58555688.38463677
428,0.385186936909729
452,0.385186936909729
551,161288055.25031559
1093,232572366.71067745
1121,0.0
1134,71850288.6634842
1264,0.0
1289,0.0
1328,0.0
1353,0.0
1378,28798.49866735013
2,3, 1, 3, 0, 5, 0.00,60.00,Thursday
10,2166849523.8855178
46,377189496.29454568
149,719514143.1308501
242,2200714160.881653
278,268641787.1779431
401,58749622.77984395
428,1.0768788413185955
452,0.3851869369097291
551,153913233.7761824
1093,395816980.1230248
1121,455088860.0417595
1134,71850288.6634842
1264,9637842.043723204
1289,0.6916919044088664
1328,1778159139.9275275
1353,0.0
1378,79002290.80828654
2,3, 1, 3, 0, 6, 0.00,60.00,Thursday
10,1459739356.5670922
46,377189496.29454568
149,719514143.1308501
242,421668935.985819
278,268641787.1779431
401,58584263.26886753
428,0.385186936909729
452,0.385186936909729
551,153027148.8078759
1093,232572366.71067745
1121,0.0
1134,71850288.6634842
1264,0.0
1289,0.0
1328,0.0
1353,0.0
1378,28798.49866735013
2,3, 1, 3, 0, 7, 0.00,60.00,Thursday
10,2190481458.759131
46,377189496.29454568
149,731916144.6971036
242,2231035991.6247045
278,268641787.1779431
401,61483248.07243776
428,1.0759302541213394
452,0.3851869369097291
551,156741233.64698784
1093,395816980.1230248
1121,454600374.16108748
1134,80848391.88443214
1264,9496420.621779845
1289,0.6907433172116102
1328,1805652970.7997738
1353,0.0
1378,79130402.90472009
2,3, 1, 3, 0, 8, 0.00,60.00,Thursday
10,2611144359.229658
46,531870360.8111264
149,1353238374.5222309
242,1218349832.7875334
278,524411614.32828727
401,91997050.3386764
428,0.8643796573336917
452,0.6667262258036768
551,176732514.29118974
1093,385075262.5010472
1121,90368930.79658297
1134,80848391.88443214
1264,2128809.1362256475
1289,0.19765343153001489
1328,517205704.16805616
1353,0.0
1378,75617179.23933606
2,3, 1, 3, 0, 9, 0.00,60.00,Thursday
10,3349925584.1087505
46,957366649.4600273
149,1730278095.483358
242,1455383530.1516
278,674243504.1363694
401,108941157.18143869
428,0.9832472473725269
452,0.8291290895160317
551,175829464.805007
1093,395816980.1230248
1121,80061935.04426477
1134,0.0
1264,1787956.2480148567
1289,0.15411815785649519
1328,605310561.2102234
1353,0.0
1378,75672810.56862094
2,3, 1, 3, 0,10, 0.00,60.00,Thursday
10,3327433045.886413
46,957366649.4600273
149,1703784165.3511444
242,1313484609.1399418
278,674243504.1363694
401,126196726.07347909
428,1.0811598984168245
452,0.9434917225527257
551,185986343.46561239
1093,395816980.1230248
1121,67346922.22246735
1134,0.0
1264,1532601.9106513123
1289,0.13766817586409869
1328,453254761.53796
1353,0.0
1378,75389000.74561782
2,3, 1, 3, 0,11, 0.00,60.00,Thursday
10,3364611395.7830555
46,957366649.4600273
149,1703784165.3511444
242,1390056313.4147707
278,674243504.1363694
401,146651629.99309058
428,1.306695074046591
452,1.1150356721077668
551,197586659.26538465
1093,395816980.1230248
1121,83714261.2778823
1134,0.0
1264,1838778.364662837
1289,0.1916594019388243
1328,518226150.0130166
1353,0.0
1378,75438931.21322324
2,3, 1, 3, 0,12, 0.00,60.00,Thursday
10,3363048999.9621427
46,957366649.4600273
149,1703784165.3511444
242,1283685338.2448762
278,674243504.1363694
401,145508626.43305774
428,1.3535902588477787
452,1.1722169886261138
551,203722060.77408145
1093,395816980.1230248
1121,83420656.78574093
1134,0.0
1264,1843464.470272754
1289,0.18137327022166475
1328,405719773.3344253
1353,0.0
1378,75308457.33887416
2,3, 1, 3, 0,13, 0.00,60.00,Thursday
10,3353853172.804301
46,957366649.4600273
149,1703784165.3511444
242,1257582215.6179722
278,674243504.1363694
401,135863910.07330946
428,1.2346217579211272
452,1.0149683682006597
551,190588027.34991814
1093,395816980.1230248
1121,83900332.92423181
1134,0.0
1264,1834112.513573855
1289,0.21965338972046756
1328,392750684.13168469
1353,0.0
1378,75287022.35898836
2,3, 1, 3, 0,14, 0.00,60.00,Thursday
10,3350288031.918853
46,957366649.4600273
149,1703784165.3511444
242,1268922464.836942
278,674243504.1363694
401,149789458.15887875
428,1.3526098785575729
452,1.1722169886261138
551,198351176.31784768
1093,395816980.1230248
1121,66750819.37577094
1134,0.0
1264,1505143.3997046436
1289,0.18039288993145906
1328,396327784.382725
1353,0.0
1378,75274816.05030191
2,3, 1, 3, 0,15, 0.00,60.00,Thursday
10,3330814349.8172276
46,957366649.4600273
149,1703784165.3511444
242,1244231745.9588955
278,674243504.1363694
401,144747701.19047369
428,1.2778943260530567
452,1.1150356721077668
551,197590792.13130964
1093,395816980.1230248
1121,52632504.4720781
1134,0.0
1264,1226483.7358894705
1289,0.1628586539452899
1328,372397449.69121649
1353,0.0
1378,75239865.48458901
2,3, 1, 3, 0,16, 0.00,60.00,Thursday
10,3327601225.7419555
46,957366649.4600273
149,1703784165.3511444
242,1267494992.7213474
278,674243504.1363694
401,138525053.04954387
428,1.2329342957680505
452,1.0578543555894198
551,196820929.8008728
1093,395816980.1230248
1121,55573851.53943916
1134,0.0
1264,1273278.0817312205
1289,0.17507994017863075
1328,396430558.78410509
1353,0.0
1378,75261248.13704394
2,3, 1, 3, 0,17, 0.00,60.00,Thursday
10,2247240083.5331156
46,454529928.552836
149,1162350039.9921873
242,1786094139.5300258
278,449495669.11658379
401,119943680.82208133
428,1.0452599175840578
452,0.9006057351639656
551,185243140.6907338
1093,395816980.1230248
1121,37572241.810187209
1134,0.0
1264,935135.5499004698
1289,0.14465418242009224
1328,1151355329.7227083
1353,0.0
1378,76092076.68289846
2,3, 1, 3, 0,18, 0.00,60.00,Thursday
10,2272451269.9370095
46,454529928.552836
149,1153481748.4316269
242,1911730488.7058473
278,449495669.11658379
401,82683633.5075737
428,0.718597733822593
452,0.5861084943130569
551,161948004.44847984
1093,395816980.1230248
1121,27953630.81211199
1134,80848391.88443214
1264,745821.3464830127
1289,0.13248923950953607
1328,1300286815.1407836
1353,0.0
1378,76391135.27892053
2,3, 1, 3, 0,19, 0.00,60.00,Thursday
10,2245464556.5788028
46,454529928.552836
149,1135856109.8599737
242,1966138556.849093
278,449495669.11658379
401,72426358.0889919
428,0.5992323293246156
452,0.4755885219147414
551,162088654.08644033
1093,395816980.1230248
1121,28683375.334037145
1134,80848391.88443214
1264,758294.0845789826
1289,0.12364380740987414
1328,1354554233.6460689
1353,0.0
1378,76545118.65092743
2,3, 1, 3, 0,20, 0.00,60.00,Thursday
10,2255846986.4267218
46,454529928.552836
149,1148258111.4262274
242,1936031615.3383029
278,449495669.11658379
401,72034514.80116734
428,0.593763188055213
452,0.4755885219147414
551,156352434.1215155
1093,395816980.1230248
1121,27117127.42070303
1134,80848391.88443214
1264,721934.6747508629
1289,0.11817466614047166
1328,1330183512.1002036
1353,0.0
1378,76519997.54358025
2,3, 1, 3, 0,21, 0.00,60.00,Thursday
10,2243777306.3914024
46,454529928.552836
149,1135856109.8599737
242,2023851009.0847352
278,449495669.11658379
401,72220529.34287489
428,0.5937614742809595
452,0.4755885219147414
551,165119560.9322899
1093,395816980.1230248
1121,27141503.00887938
1134,80848391.88443214
1264,721895.4184650969
1289,0.1181729523662181
1328,1409235779.0358616
1353,0.0
1378,76641968.20091652
2,3, 1, 3, 0,22, 0.00,60.00,Thursday
10,2242014631.6734797
46,454529928.552836
149,1149837093.876466
242,2079372310.936016
278,449495669.11658379
401,59904457.35477782
428,0.5331534929299191
452,0.3997445825690203
551,153046744.33149583
1093,395816980.1230248
1121,23691108.09174594
1134,80848391.88443214
1264,643576.7397920257
1289,0.13340891036089878
1328,1476829897.4879366
1353,0.0
1378,76743095.05040474
2,3, 1, 3, 0,23, 0.00,60.00,Thursday
10,2430182560.4373667
46,454529928.552836
149,1079271214.6962753
242,1672719805.7668896
278,402962680.76691469
401,60759160.420596558
428,0.8261542875215431
452,0.3851869369097291
551,153838970.91300748
1093,353001197.7211973
1121,333329430.1103011
1134,80848391.88443214
1264,6283140.019821545
1289,0.440967350611814
1328,1115918154.0869675
1353,0.0
1378,62160097.03190642
2,3, 1, 3, 0,24, 0.00,60.00,Thursday
10,1472952547.517674
46,377189496.29454568
149,719514143.1308501
242,429930794.45229735
278,268641787.1779431
401,62799350.99850113
428,0.3851869369097291
452,0.3851869369097291
551,161289007.2743542
1093,232572366.71067745
1121,0.0
1134,80848391.88443214
1264,0.0
1289,0.0
1328,0.0
1353,0.0
1378,28798.498667350123
2,4, 1, 4, 0, 1, 0.00,60.00,Friday
10,2166423974.730454
46,377189496.29454568
149,719514143.1308501
242,2358227395.338326