Program Version,EnergyPlus, Version 9.1.0-fafb9d5652, YMD=2020.03.26 13:24
1,5,Environment Title[],Latitude[deg],Longitude[deg],Time Zone[],Elevation[m]
2,8,Day of Simulation[],Month[],Day of Month[],DST Indicator[1=yes 0=no],Hour[],StartMinute[],EndMinute[],DayType
3,5,Cumulative Day of Simulation[],Month[],Day of Month[],DST Indicator[1=yes 0=no],DayType  ! When Daily Report Variables Requested
4,2,Cumulative Days of Simulation[],Month[]  ! When Monthly Report Variables Requested
5,1,Cumulative Days of Simulation[] ! When Run Period Report Variables Requested
6,1,Calendar Year of Simulation[] ! When Annual Report Variables Requested
7,9,Environment,Site Outdoor Air Drybulb Temperature [C] !Monthly [Value,Min,Day,Hour,Minute,Max,Day,Hour,Minute]
8,1,Environment,Site Outdoor Air Wetbulb Temperature [C] !TimeStep
545,1,BUILDING STORY 1 THERMALZONE,Zone Air Temperature [C] !Hourly
546,7,BUILDING STORY 1 THERMALZONE,Zone Air Relative Humidity [%] !Daily [Value,Min,Hour,Minute,Max,Hour,Minute]
11,1,Electricity:Facility [J] !TimeStep
123,1,Gas:Facility [J] !TimeStep
End of Data Dictionary
1,BUFFALO NIAGARA INTL AP ANN CLG .4% CONDNS DB=>MWB 1,  42.93, -78.73,  -5.00, 215.00
2,1, 7,21, 0, 1, 0.00,60.00,SummerDesignDay
8,19.36840579326866
11,553452043.7719179
123,681760252.6182903
2,1, 7,21, 0, 1, 0.00,60.00,SummerDesignDay
545,29.243998782671075
2,1, 7,21, 0, 2, 0.00,60.00,SummerDesignDay
8,19.25226217922265
11,541165537.5227877
123,394603754.7184301
2,1, 7,21, 0, 2, 0.00,60.00,SummerDesignDay
545,29.812469907586178
2,1, 7,21, 0, 3, 0.00,60.00,SummerDesignDay
8,19.164819553782637
11,542756143.4220902
123,383102061.4267604
2,1, 7,21, 0, 3, 0.00,60.00,SummerDesignDay
545,29.943522442671037
2,1, 7,21, 0, 4, 0.00,60.00,SummerDesignDay
8,19.0770792448193
11,549934132.1695026
123,383102061.4267604
2,1, 7,21, 0, 4, 0.00,60.00,SummerDesignDay
545,29.956642953289405
2,1, 7,21, 0, 5, 0.00,60.00,SummerDesignDay
8,19.018427637799467
11,551480258.4879295
123,383102061.4267604
2,1, 7,21, 0, 5, 0.00,60.00,SummerDesignDay
545,29.964019886820244
2,1, 7,21, 0, 6, 0.00,60.00,SummerDesignDay
8,19.0770792448193
11,669661332.043026
123,383102061.4267604
2,1, 7,21, 0, 6, 0.00,60.00,SummerDesignDay
545,26.37669965823992
2,1, 7,21, 0, 7, 0.00,60.00,SummerDesignDay
8,19.281346189070228
11,795088380.9806365
123,684663667.9329627
2,1, 7,21, 0, 7, 0.00,60.00,SummerDesignDay
545,24.26138327094099
2,1, 7,21, 0, 8, 0.00,60.00,SummerDesignDay
8,19.770887505670989
11,859033035.610811
123,761228971.1880082
2,1, 7,21, 0, 8, 0.00,60.00,SummerDesignDay
545,23.978079285915429
2,1, 7,21, 0, 9, 0.00,60.00,SummerDesignDay
8,20.30732185289352
11,870748658.5261283
123,759214891.4465909
2,1, 7,21, 0, 9, 0.00,60.00,SummerDesignDay
545,23.97496630739658
2,1, 7,21, 0,10, 0.00,60.00,SummerDesignDay
8,20.778037156782458
11,878883139.1280223
123,737407181.0500549
2,1, 7,21, 0,10, 0.00,60.00,SummerDesignDay
545,23.97297964721777
2,1, 7,21, 0,11, 0.00,60.00,SummerDesignDay
8,21.186337137460165
11,890339196.3537959
123,734631831.5383396
2,1, 7,21, 0,11, 0.00,60.00,SummerDesignDay
545,23.97176953352355
2,1, 7,21, 0,12, 0.00,60.00,SummerDesignDay
8,21.45495938709981
11,905804550.3124092
123,737433981.3755465
2,1, 7,21, 0,12, 0.00,60.00,SummerDesignDay
545,23.971594607393514
2,1, 7,21, 0,13, 0.00,60.00,SummerDesignDay
8,21.667839996742449
11,910378238.1102837
123,734659901.4143298
2,1, 7,21, 0,13, 0.00,60.00,SummerDesignDay
545,23.971580692748167
2,1, 7,21, 0,14, 0.00,60.00,SummerDesignDay
8,21.799990419629109
11,914100225.2471653
123,713298815.9257779
2,1, 7,21, 0,14, 0.00,60.00,SummerDesignDay
545,23.97144986872403
2,1, 7,21, 0,15, 0.00,60.00,SummerDesignDay
8,21.799990419629109
11,910668163.7062703
123,709643175.6354599
2,1, 7,21, 0,15, 0.00,60.00,SummerDesignDay
545,23.97130964308642
2,1, 7,21, 0,16, 0.00,60.00,SummerDesignDay
8,21.641326796728476
11,903500841.8353833
123,709624198.7405827
2,1, 7,21, 0,16, 0.00,60.00,SummerDesignDay
545,23.971246462267336
2,1, 7,21, 0,17, 0.00,60.00,SummerDesignDay
8,21.42822317147698
11,892376092.0446729
123,710241357.7601991
2,1, 7,21, 0,17, 0.00,60.00,SummerDesignDay
545,23.971235651658913
2,1, 7,21, 0,18, 0.00,60.00,SummerDesignDay
8,21.15931786227956
11,887755949.3873478
123,733994555.8821162
2,1, 7,21, 0,18, 0.00,60.00,SummerDesignDay
545,23.971371497584156
2,1, 7,21, 0,19, 0.00,60.00,SummerDesignDay
8,20.750583661392644
11,878992529.9869766
123,759221036.6498945
2,1, 7,21, 0,19, 0.00,60.00,SummerDesignDay
545,23.971765333076328
2,1, 7,21, 0,20, 0.00,60.00,SummerDesignDay
8,20.446661088459409
11,859024851.4473586
123,761216884.7674683
2,1, 7,21, 0,20, 0.00,60.00,SummerDesignDay
545,23.972407272947728
2,1, 7,21, 0,21, 0.00,60.00,SummerDesignDay
8,20.19530361990708
11,871688932.4926853
123,757119141.5786476
2,1, 7,21, 0,21, 0.00,60.00,SummerDesignDay
545,23.972852997701385
2,1, 7,21, 0,22, 0.00,60.00,SummerDesignDay
8,19.941485234887624
11,865037929.5200939
123,759258844.7643359
2,1, 7,21, 0,22, 0.00,60.00,SummerDesignDay
545,23.973095567546467
2,1, 7,21, 0,23, 0.00,60.00,SummerDesignDay
8,19.7423381019073
11,843313805.8440088
123,737460898.6607964
2,1, 7,21, 0,23, 0.00,60.00,SummerDesignDay
545,23.973262843191475
2,1, 7,21, 0,24, 0.00,60.00,SummerDesignDay
8,19.54165603023991
11,810944043.7748326
123,701249618.0623821
2,1, 7,21, 0,24, 0.00,60.00,SummerDesignDay
545,23.973406886748586
3,1, 7,21, 0,SummerDesignDay
546,60.92689494389709,55.37838769028654, 1,10,72.26765155629333, 6,10
4,1, 7
7,25.312875000000003,21.0,21, 5,60,30.3,21,14,60
1,BUFFALO NIAGARA INTL AP ANN CLG .4% CONDNS WB=>MDB 1,  42.93, -78.73,  -5.00, 215.00
2,1, 7,21, 0, 1, 0.00,60.00,SummerDesignDay
8,19.615996954992807
11,543579411.5676235
123,681760252.6182903
2,1, 7,21, 0, 1, 0.00,60.00,SummerDesignDay
545,28.748545521384185
2,1, 7,21, 0, 2, 0.00,60.00,SummerDesignDay
8,19.243988037109376
11,517100611.9560043
123,407441497.03061899
2,1, 7,21, 0, 2, 0.00,60.00,SummerDesignDay
545,29.662106549592456
2,1, 7,21, 0, 3, 0.00,60.00,SummerDesignDay
8,18.96499632356402
11,510710996.33440056
123,383102061.4267604
2,1, 7,21, 0, 3, 0.00,60.00,SummerDesignDay
545,29.898006674477697
2,1, 7,21, 0, 4, 0.00,60.00,SummerDesignDay
8,18.685989379882814
11,516161538.5117073
123,383102061.4267604
2,1, 7,21, 0, 4, 0.00,60.00,SummerDesignDay
545,29.929603170974905
2,1, 7,21, 0, 5, 0.00,60.00,SummerDesignDay
8,18.49999810986028
11,517170545.22774079
123,383102061.4267604
2,1, 7,21, 0, 5, 0.00,60.00,SummerDesignDay
545,29.948116339493724
2,1, 7,21, 0, 6, 0.00,60.00,SummerDesignDay
8,18.685989379882814
11,643555328.6266174
123,383102061.4267604
2,1, 7,21, 0, 6, 0.00,60.00,SummerDesignDay
545,26.376855665807005
2,1, 7,21, 0, 7, 0.00,60.00,SummerDesignDay
8,19.336990356445314
11,773875603.9618104
123,684663754.7357698
2,1, 7,21, 0, 7, 0.00,60.00,SummerDesignDay
545,24.276614906194557
2,1, 7,21, 0, 8, 0.00,60.00,SummerDesignDay
8,20.917992548817627
11,847343502.3028392
123,761228971.3673425
2,1, 7,21, 0, 8, 0.00,60.00,SummerDesignDay
545,23.978472216412585
2,1, 7,21, 0, 9, 0.00,60.00,SummerDesignDay
8,22.420023807696297
11,871625831.9428687
123,759214891.64765
2,1, 7,21, 0, 9, 0.00,60.00,SummerDesignDay
545,23.975411377633028
2,1, 7,21, 0,10, 0.00,60.00,SummerDesignDay
8,22.854695006230427
11,882697294.7680397
123,737407181.2958133
2,1, 7,21, 0,10, 0.00,60.00,SummerDesignDay
545,23.973272052004466
2,1, 7,21, 0,11, 0.00,60.00,SummerDesignDay
8,23.232104587122938
11,894679701.2973634
123,734631831.7957683
2,1, 7,21, 0,11, 0.00,60.00,SummerDesignDay
545,23.971763908234239
2,1, 7,21, 0,12, 0.00,60.00,SummerDesignDay
8,23.480593542408348
11,909650932.9015554
123,737433981.6142283
2,1, 7,21, 0,12, 0.00,60.00,SummerDesignDay
545,23.971554302796027
2,1, 7,21, 0,13, 0.00,60.00,SummerDesignDay
8,23.677626430315248
11,914192648.1573491
123,734659901.6642907
2,1, 7,21, 0,13, 0.00,60.00,SummerDesignDay
545,23.971566661021347
2,1, 7,21, 0,14, 0.00,60.00,SummerDesignDay
8,23.799986320868798
11,918102204.8808836
123,713298816.2106452
2,1, 7,21, 0,14, 0.00,60.00,SummerDesignDay
545,23.97142293949007
2,1, 7,21, 0,15, 0.00,60.00,SummerDesignDay
8,23.799986320868798
11,914624355.0808133
123,709643175.9514885
2,1, 7,21, 0,15, 0.00,60.00,SummerDesignDay
545,23.971256527383586
2,1, 7,21, 0,16, 0.00,60.00,SummerDesignDay
8,23.653081835774505
11,907264416.0966467
123,709624199.0636017
2,1, 7,21, 0,16, 0.00,60.00,SummerDesignDay
545,23.971181667144046
2,1, 7,21, 0,17, 0.00,60.00,SummerDesignDay
8,23.4558543827806
11,896015388.6008355
123,710241246.3037927
2,1, 7,21, 0,17, 0.00,60.00,SummerDesignDay
545,23.971171521756089
2,1, 7,21, 0,18, 0.00,60.00,SummerDesignDay
8,23.207119318496696
11,891199292.9411092
123,733994661.1768086
2,1, 7,21, 0,18, 0.00,60.00,SummerDesignDay
545,23.97129955951056
2,1, 7,21, 0,19, 0.00,60.00,SummerDesignDay
8,22.82933132300861
11,881957752.8407656
123,759221036.8142393
2,1, 7,21, 0,19, 0.00,60.00,SummerDesignDay
545,23.97167846294124
2,1, 7,21, 0,20, 0.00,60.00,SummerDesignDay
8,22.548645905899027
11,861404274.2902709
123,761216884.9229436
2,1, 7,21, 0,20, 0.00,60.00,SummerDesignDay
545,23.97232268961017
2,1, 7,21, 0,21, 0.00,60.00,SummerDesignDay
8,22.312987690310977
11,874384366.7395779
123,757119141.7573006
2,1, 7,21, 0,21, 0.00,60.00,SummerDesignDay
545,23.972809302029263
2,1, 7,21, 0,22, 0.00,60.00,SummerDesignDay
8,21.475995587251039
11,861574862.9830878
123,759258844.9184605
2,1, 7,21, 0,22, 0.00,60.00,SummerDesignDay
545,23.973135847350464
2,1, 7,21, 0,23, 0.00,60.00,SummerDesignDay
8,20.824995071347869
11,834381806.738608
123,737460898.8491345
2,1, 7,21, 0,23, 0.00,60.00,SummerDesignDay
545,23.97324917271814
2,1, 7,21, 0,24, 0.00,60.00,SummerDesignDay
8,20.173995840857065
11,796624731.6993859
123,701249534.7890564
2,1, 7,21, 0,24, 0.00,60.00,SummerDesignDay
545,23.973447585659057
3,1, 7,21, 0,SummerDesignDay
546,64.68094130641687,58.99043836389058, 8,60,77.3360370622022, 6,10
4,1, 7
7,22.812875000000003,18.5,21, 5,60,27.8,21,14,60
1,BUFFALO NIAGARA INTL AP ANN HTG 99.6% CONDNS DB 1,  42.93, -78.73,  -5.00, 215.00
2,1, 1,21, 0, 1, 0.00,60.00,WinterDesignDay
8,-16.3
11,114765794.49537157
123,1619481815.8951989
2,1, 1,21, 0, 1, 0.00,60.00,WinterDesignDay
545,21.0
2,1, 1,21, 0, 2, 0.00,60.00,WinterDesignDay
8,-16.3
11,91749701.58631377
123,1248963269.0312298
2,1, 1,21, 0, 2, 0.00,60.00,WinterDesignDay
545,21.000000000000033
2,1, 1,21, 0, 3, 0.00,60.00,WinterDesignDay
8,-16.3
11,91749742.09324663
123,1240243628.4490195
2,1, 1,21, 0, 3, 0.00,60.00,WinterDesignDay
545,20.999999999999987
2,1, 1,21, 0, 4, 0.00,60.00,WinterDesignDay
8,-16.3
11,91749782.25870373
123,1240243628.8494232
2,1, 1,21, 0, 4, 0.00,60.00,WinterDesignDay
545,20.999999999999994
2,1, 1,21, 0, 5, 0.00,60.00,WinterDesignDay
8,-16.3
11,91749822.08635077
123,1240243629.2062023
2,1, 1,21, 0, 5, 0.00,60.00,WinterDesignDay
545,20.999999999999998
2,1, 1,21, 0, 6, 0.00,60.00,WinterDesignDay
8,-16.3
11,91935835.30547534
123,1240243629.5241109
2,1, 1,21, 0, 6, 0.00,60.00,WinterDesignDay
545,20.999999999999998
2,1, 1,21, 0, 7, 0.00,60.00,WinterDesignDay
8,-16.3
11,105892628.99671948
123,1617155484.7282544
2,1, 1,21, 0, 7, 0.00,60.00,WinterDesignDay
545,21.0
2,1, 1,21, 0, 8, 0.00,60.00,WinterDesignDay
8,-16.3
11,105892669.44137287
123,1617155624.7464696
2,1, 1,21, 0, 8, 0.00,60.00,WinterDesignDay
545,21.000000000000005
2,1, 1,21, 0, 9, 0.00,60.00,WinterDesignDay
8,-16.3
11,66278161.23727989
123,1617155764.2053726
2,1, 1,21, 0, 9, 0.00,60.00,WinterDesignDay
545,21.0
2,1, 1,21, 0,10, 0.00,60.00,WinterDesignDay
8,-16.3
11,124843132.03094048
123,1691016687.370013
2,1, 1,21, 0,10, 0.00,60.00,WinterDesignDay
545,21.0
2,1, 1,21, 0,11, 0.00,60.00,WinterDesignDay
8,-16.3
11,117760503.85076063
123,1685832845.7816516
2,1, 1,21, 0,11, 0.00,60.00,WinterDesignDay
545,21.0
2,1, 1,21, 0,12, 0.00,60.00,WinterDesignDay
8,-16.3
11,123660497.1376516
123,1699859143.0318809
2,1, 1,21, 0,12, 0.00,60.00,WinterDesignDay
545,21.00000000000003
2,1, 1,21, 0,13, 0.00,60.00,WinterDesignDay
8,-16.3
11,123274132.39313197
123,1699859143.173664
2,1, 1,21, 0,13, 0.00,60.00,WinterDesignDay
545,21.000000000000015
2,1, 1,21, 0,14, 0.00,60.00,WinterDesignDay
8,-16.3
11,117554166.67832618
123,1685835287.7660249
2,1, 1,21, 0,14, 0.00,60.00,WinterDesignDay
545,20.99999999999998
2,1, 1,21, 0,15, 0.00,60.00,WinterDesignDay
8,-16.3
11,112070917.4260772
123,1671072609.466085
2,1, 1,21, 0,15, 0.00,60.00,WinterDesignDay
545,20.999999999999987
2,1, 1,21, 0,16, 0.00,60.00,WinterDesignDay
8,-16.3
11,111829634.84670441
123,1677158844.1765636
2,1, 1,21, 0,16, 0.00,60.00,WinterDesignDay
545,20.999999999999994
2,1, 1,21, 0,17, 0.00,60.00,WinterDesignDay
8,-16.3
11,106532214.71503362
123,1664033388.2214838
2,1, 1,21, 0,17, 0.00,60.00,WinterDesignDay
545,20.999999999999998
2,1, 1,21, 0,18, 0.00,60.00,WinterDesignDay
8,-16.3
11,151748297.06351618
123,1671071886.2542248
2,1, 1,21, 0,18, 0.00,60.00,WinterDesignDay
545,21.00000000000003
2,1, 1,21, 0,19, 0.00,60.00,WinterDesignDay
8,-16.3
11,171513707.25615938
123,1699859143.7528868
2,1, 1,21, 0,19, 0.00,60.00,WinterDesignDay
545,20.999999999999987
2,1, 1,21, 0,20, 0.00,60.00,WinterDesignDay
8,-16.3
11,172483821.88839359
123,1699859143.8161274
2,1, 1,21, 0,20, 0.00,60.00,WinterDesignDay
545,21.000000000000026
2,1, 1,21, 0,21, 0.00,60.00,WinterDesignDay
8,-16.3
11,164514740.39344964
123,1699859143.87247
2,1, 1,21, 0,21, 0.00,60.00,WinterDesignDay
545,21.00000000000001
2,1, 1,21, 0,22, 0.00,60.00,WinterDesignDay
8,-16.3
11,170775817.9156597
123,1699859143.922678
2,1, 1,21, 0,22, 0.00,60.00,WinterDesignDay
545,21.000000000000005
2,1, 1,21, 0,23, 0.00,60.00,WinterDesignDay
8,-16.3
11,151776958.2575116
123,1685459917.6602252
2,1, 1,21, 0,23, 0.00,60.00,WinterDesignDay
545,20.999999999999976
2,1, 1,21, 0,24, 0.00,60.00,WinterDesignDay
8,-16.3
11,140242881.40315608
123,1639117923.9112766
2,1, 1,21, 0,24, 0.00,60.00,WinterDesignDay
545,21.000000000000044
3,1, 1,21, 0,WinterDesignDay
546,5.890092379104151,5.890092235236944, 1,60,5.890092580518236, 3,60
4,1, 1
7,-16.300000000000009,-16.3,21, 1,60,-16.3,21, 1,60
End of Data
 Number of Records Written=         294
