Program Version,EnergyPlus, Version 9.1.0-fafb9d5652, YMD=2020.03.26 13:28
1,5,Environment Title[],Latitude[deg],Longitude[deg],Time Zone[],Elevation[m]
2,8,Day of Simulation[],Month[],Day of Month[],DST Indicator[1=yes 0=no],Hour[],StartMinute[],EndMinute[],DayType
3,5,Cumulative Day of Simulation[],Month[],Day of Month[],DST Indicator[1=yes 0=no],DayType  ! When Daily Report Variables Requested
4,2,Cumulative Days of Simulation[],Month[]  ! When Monthly Report Variables Requested
5,1,Cumulative Days of Simulation[] ! When Run Period Report Variables Requested
6,1,Calendar Year of Simulation[] ! When Annual Report Variables Requested
699,1,BUILDING STORY 1 THERMALZONE FULLSERVICERESTAURANT DINING PEOPLE 1,Zone Thermal Comfort Fanger Model PMV [] !TimeStep
700,1,BUILDING STORY 1 THERMALZONE FULLSERVICERESTAURANT DINING PEOPLE 1,Zone Thermal Comfort Fanger Model PPD [%] !TimeStep
701,1,BUILDING STORY 1 THERMALZONE FULLSERVICERESTAURANT KITCHEN PEOPLE 1,Zone Thermal Comfort Fanger Model PMV [] !TimeStep
702,1,BUILDING STORY 1 THERMALZONE FULLSERVICERESTAURANT KITCHEN PEOPLE 1,Zone Thermal Comfort Fanger Model PPD [%] !TimeStep
703,1,BUILDING STORY 1 THERMALZONE,Zone Thermal Comfort ASHRAE 55 Simple Model Summer Clothes Not Comfortable Time [hr] !TimeStep
704,1,BUILDING STORY 1 THERMALZONE,Zone Thermal Comfort ASHRAE 55 Simple Model Winter Clothes Not Comfortable Time [hr] !TimeStep
705,1,BUILDING STORY 1 THERMALZONE,Zone Thermal Comfort ASHRAE 55 Simple Model Summer or Winter Clothes Not Comfortable Time [hr] !TimeStep
859,1,Heating:Electricity [J] !TimeStep
885,1,Heating:Gas [J] !TimeStep
833,1,Cooling:Electricity [J] !TimeStep
46,1,InteriorLights:Electricity [J] !TimeStep
744,1,ExteriorLights:Electricity [J] !TimeStep
84,1,InteriorEquipment:Electricity [J] !TimeStep
158,1,InteriorEquipment:Gas [J] !TimeStep
719,1,Fans:Electricity [J] !TimeStep
952,1,Pumps:Electricity [J] !TimeStep
256,1,WaterSystems:Electricity [J] !TimeStep
406,1,WaterSystems:Gas [J] !TimeStep
307,1,WaterSystems:Water [m3] !TimeStep
10,1,Electricity:Facility [J] !TimeStep
122,1,Gas:Facility [J] !TimeStep
283,1,Water:Facility [m3] !TimeStep
End of Data Dictionary
1,RUN PERIOD 1,  42.93, -78.73,  -5.00, 215.00
2,1, 1, 1, 0, 1, 0.00,60.00,Tuesday
699,-0.4619139753591368
700,9.453971031385479
701,-0.4619139753591368
702,9.453971031385479
703,1.0
704,0.0
705,0.0
10,45421496.05807188
46,5070701.536174937
84,16874172.35440544
122,194211039.3529409
158,18985439.605535054
256,11274487.326273298
283,0.19561201069280186
307,0.19561201069280186
406,175225599.74740584
719,0.0
744,12202134.83999994
833,0.0
859,0.0
885,0.0
952,0.0012182628396413887
2,1, 1, 1, 0, 2, 0.00,60.00,Tuesday
699,-0.3627762409571289
700,7.739226346875526
701,-0.3627762409571289
702,7.739226346875526
703,0.0
704,0.0
705,0.0
10,29276178.14646609
46,5638102.855022343
84,11249448.236270294
122,14472783.794553243
158,12656959.73702337
256,186492.2151735127
283,0.0
307,0.0
406,1815824.0575298726
719,0.0
744,12202134.83999994
833,0.0
859,0.0
885,0.0
952,0.0
2,1, 1, 1, 0, 3, 0.00,60.00,Tuesday
699,-0.3897790126085926
700,8.164593930221884
701,-0.3897790126085926
702,8.164593930221884
703,0.0
704,0.0
705,0.0
10,34900942.529121149
46,5638102.855022343
84,16874172.35440544
122,18985439.605535054
158,18985439.605535054
256,186532.47969342129
283,0.0
307,0.0
406,0.0
719,0.0
744,12202134.83999994
833,0.0
859,0.0
885,0.0
952,0.0
2,1, 1, 1, 0, 4, 0.00,60.00,Tuesday
699,-0.38889746343415618
700,8.150215652475197
701,-0.38889746343415618
702,8.150215652475197
703,0.0
704,0.0
705,0.0
10,29276258.33822608
46,5638102.855022343
84,11249448.236270294
122,12656959.73702337
158,12656959.73702337
256,186572.406933503
283,0.0
307,0.0
406,0.0
719,0.0
744,12202134.83999994
833,0.0
859,0.0
885,0.0
952,0.0
2,1, 1, 1, 0, 5, 0.00,60.00,Tuesday
699,-0.3712419289313596
700,7.869237121853686
701,-0.3712419289313596
702,7.869237121853686
703,0.0
704,0.0
705,0.0
10,46150470.28619283
46,5638102.855022343
84,28123620.59067574
122,31642399.34255842
158,31642399.34255842
256,186612.00049481
283,0.0
307,0.0
406,0.0
719,0.0
744,12202134.83999994
833,0.0
859,0.0
885,0.0
952,0.0
2,1, 1, 1, 0, 6, 0.00,60.00,Tuesday
699,-0.31214325881312018
700,7.025260187832856
701,-0.31214325881312018
702,7.025260187832856
703,1.0
704,0.0
705,0.0
10,86832214.07346644
46,6760105.648809036
84,67496689.41762176
122,82283212.05651662
158,75941758.42214021
256,373284.16703570148
283,0.0
307,0.0
406,6341453.634376403
719,0.0
744,12202134.83999994
833,0.0
859,0.0
885,0.0
952,0.0
2,1, 1, 1, 0, 7, 0.00,60.00,Tuesday
699,-0.06835387096202794
700,5.096738194235968
701,-0.06835387096202794
702,5.096738194235968
703,1.0
704,0.0
705,0.0
10,106493033.14624927
46,13520211.297618073
84,73121413.53575692
122,249953202.26271446
158,82270238.2906519
256,186614.51648128319
283,0.14670900801960139
307,0.14670900801960139
406,167682963.97206254
719,0.0
744,19664793.795210594
833,0.0
859,0.0
885,0.0
952,0.0011824283460839696
2,1, 1, 1, 0, 8, 0.00,60.00,Tuesday
699,0.09356603200833536
700,5.181295570520149
701,0.09356603200833536
702,5.181295570520149
703,1.0
704,0.0
705,0.0
10,203264157.9007846
46,13520211.297618073
84,84370861.77202721
122,441840384.94908419
158,94927198.02767527
256,32861159.64157353
283,0.5868360320784055
307,0.5868360320784055
406,213102356.4924601
719,52847131.39285028
744,19664793.795210594
833,0.0
859,0.0
885,133810830.42894879
952,0.001504938788100741
2,1, 1, 1, 0, 9, 0.00,60.00,Tuesday
699,-0.25541431814693
700,6.354238676013665
701,-0.25541431814693
702,6.354238676013665
703,1.0
704,0.0
705,0.0
10,206569371.30954547
46,20280316.946427108
84,101245034.12643264
122,472824647.7843175
158,113912637.63321032
256,32196888.84236632
283,0.5379330294052052
307,0.5379330294052052
406,213102356.49246014
719,52847131.39285028
744,0.0
833,0.0
859,0.0
885,145809653.65864707
952,0.0014691042945433222
2,1, 1, 1, 0,10, 0.00,60.00,Tuesday
699,-0.3389296349581928
700,7.389405883414739
701,-0.3389296349581928
702,7.389405883414739
703,1.0
704,0.0
705,0.0
10,216159784.1924875
46,20280316.946427108
84,118119206.48083808
122,457930417.95452758
158,132898077.23874536
256,24913129.370974639
283,0.44012702405880418
307,0.44012702405880418
406,206488734.80282603
719,52847131.39285028
744,0.0
833,0.0
859,0.0
885,118543605.9129562
952,0.001397435307428484
2,1, 1, 1, 0,11, 0.00,60.00,Tuesday
699,-0.33189324839885267
700,7.29080286834386
701,-0.33189324839885267
702,7.29080286834386
703,1.0
704,0.0
705,0.0
10,251737118.82989828
46,30421720.018776984
84,146242827.07151384
122,480794115.20679166
158,164540476.5813038
256,22225440.34539556
283,0.3912240213856037
307,0.3912240213856037
406,197691826.0310328
719,52847131.39285028
744,0.0
833,0.0
859,0.0
885,118561812.59445499
952,0.0013616008138710649
2,1, 1, 1, 0,12, 0.00,60.00,Tuesday
699,-0.3077181649949107
700,6.96802987572066
701,-0.3077181649949107
702,6.96802987572066
703,1.0
704,0.0
705,0.0
10,271570168.5420024
46,30421720.018776984
84,163116999.42591927
122,439653838.7619456
158,183525916.18683885
256,25184317.70305845
283,0.44012702405880418
307,0.44012702405880418
406,201677745.20975749
719,52847131.39285028
744,0.0
833,0.0
859,0.0
885,54450177.365349289
952,0.001397435307428484
2,1, 1, 1, 0,13, 0.00,60.00,Tuesday
699,-0.28341161060608058
700,6.668434488909654
701,-0.28341161060608058
702,6.668434488909654
703,1.0
704,0.0
705,0.0
10,257394306.79455254
46,30421720.018776984
84,151867551.189649
122,370401433.8295985
158,170868956.44981549
256,22257904.191914709
283,0.3912240213856037
307,0.3912240213856037
406,199532477.379783
719,52847131.39285028
744,0.0
833,0.0
859,0.0
885,0.0
952,0.0013616008138710649
2,1, 1, 1, 0,14, 0.00,60.00,Tuesday
699,-0.2761861456269488
700,6.584185487462406
701,-0.2761861456269488
702,6.584185487462406
703,1.0
704,0.0
705,0.0
10,243407223.22131986
46,30421720.018776984
84,140618102.95337869
122,358861165.27646377
158,158211996.71279214
256,19520268.85498816
283,0.34232101871240319
307,0.34232101871240319
406,192206356.6490737
719,52847131.39285028
744,0.0
833,0.0
859,0.0
885,8442811.914597922
952,0.0013257663203136458
2,1, 1, 1, 0,15, 0.00,60.00,Tuesday
699,-0.288818546889978
700,6.732920346100499
701,-0.288818546889978
702,6.732920346100499
703,1.0
704,0.0
705,0.0
10,229568996.6761431
46,30421720.018776984
84,129368654.7171084
122,394396154.2570571
158,145555036.97576878
256,16931490.54611751
283,0.29341801603920278
307,0.29341801603920278
406,184470781.36766083
719,52847131.39285028
744,0.0
833,0.0
859,0.0
885,64370335.91362751
952,0.0012899318267562265
2,1, 1, 1, 0,16, 0.00,60.00,Tuesday
699,-0.3041082844260045
700,6.921956533664186
701,-0.3041082844260045
702,6.921956533664186
703,1.0
704,0.0
705,0.0
10,229325109.269997
46,30421720.018776984
84,129368654.7171084
122,439807330.30465057
158,145555036.97576878
256,16687603.139971396
283,0.29341801603920278
307,0.29341801603920278
406,191617792.6829453
719,52847131.39285028
744,0.0
833,0.0
859,0.0
885,102634500.64593648
952,0.0012899318267562265
2,1, 1, 1, 0,17, 0.00,60.00,Tuesday
699,-0.30747400873113558
700,6.964896295683701
701,-0.30747400873113558
702,6.964896295683701
703,1.0
704,0.0
705,0.0
10,246385397.08797188
46,30421720.018776984
84,146242827.07151384
122,437585524.3018971
158,164540476.5813038
256,16873718.60354085
283,0.29341801603920278
307,0.29341801603920278
406,184475082.59624646
719,52847131.39285028
744,0.0
833,0.0
859,0.0
885,88569965.12434685
952,0.0012899318267562265
2,1, 1, 1, 0,18, 0.00,60.00,Tuesday
699,-0.30293590440477738
700,6.907111890874447
701,-0.30293590440477738
702,6.907111890874447
703,1.0
704,0.0
705,0.0
10,271451946.12721779
46,30421720.018776984
84,146242827.07151384
122,421816406.8295849
158,164540476.5813038
256,22275473.847504457
283,0.3912240213856037
307,0.3912240213856037
406,199529864.98455549
719,52847131.39285028
744,19664793.795210594
833,0.0
859,0.0
885,57746065.26372557
952,0.0013616008138710649
2,1, 1, 1, 0,19, 0.00,60.00,Tuesday
699,-0.2906383538433053
700,6.754901880526802
701,-0.2906383538433053
702,6.754901880526802
703,1.0
704,0.0
705,0.0
10,268694221.4180313
46,30421720.018776984
84,134993378.83524353
122,390195594.6906144
158,151883516.84428043
256,30767197.374480774
283,0.5379330294052052
307,0.5379330294052052
406,213102356.49246014
719,52847131.39285028
744,19664793.795210594
833,0.0
859,0.0
885,25209721.35387383
952,0.0014691042945433222
2,1, 1, 1, 0,20, 0.00,60.00,Tuesday
699,-0.286680536142863
700,6.707273847848995
701,-0.286680536142863
702,6.707273847848995
703,1.0
704,0.0
705,0.0
10,259651422.99281264
46,30421720.018776984
84,123743930.59897325
122,381066544.6770916
158,139226557.10725708
256,32973847.18549661
283,0.5868360320784055
307,0.5868360320784055
406,213102356.49246014
719,52847131.39285028
744,19664793.795210594
833,0.0
859,0.0
885,28737631.077374396
952,0.001504938788100741
2,1, 1, 1, 0,21, 0.00,60.00,Tuesday
699,-0.28857538762395015
700,6.729993804280014
701,-0.28857538762395015
702,6.729993804280014
703,1.0
704,0.0
705,0.0
10,243453938.42595736
46,30421720.018776984
84,112494482.36270297
122,381730593.92250689
158,126569597.37023369
256,28025810.854983257
283,0.4890300267320046
307,0.4890300267320046
406,213102356.49246014
719,52847131.39285028
744,19664793.795210594
833,0.0
859,0.0
885,42058640.05981307
952,0.001433269800985903
2,1, 1, 1, 0,22, 0.00,60.00,Tuesday
699,-0.30775606475034658
700,6.968516519547819
701,-0.30775606475034658
702,6.968516519547819
703,1.0
704,0.0
705,0.0
10,234631981.15289418
46,30421720.018776984
84,101245034.12643264
122,427122913.6710968
158,113912637.63321032
256,30453301.818154538
283,0.5379330294052052
307,0.5379330294052052
406,213102356.49246014
719,52847131.39285028
744,19664793.795210594
833,0.0
859,0.0
885,100107919.54542639
952,0.0014691042945433222
2,1, 1, 1, 0,23, 0.00,60.00,Tuesday
699,-0.3629819090057491
700,7.7423486748582779
701,-0.3629819090057491
702,7.7423486748582779
703,1.0
704,0.0
705,0.0
10,164876966.2998019
46,16901508.72115891
84,50622517.06321632
122,431487442.41039577
158,56956318.81660516
256,24841015.325968367
283,0.44012702405880418
307,0.44012702405880418
406,206490252.8564035
719,52847131.39285028
744,19664793.795210594
833,0.0
859,0.0
885,168040870.73738713
952,0.001397435307428484
2,1, 1, 1, 0,24, 0.00,60.00,Tuesday
699,-0.42050585690743766
700,8.686531259698882
701,-0.42050585690743766
702,8.686531259698882
703,1.0
704,0.0
705,0.0
10,113449478.61466462
46,10141403.072349875
84,16874172.35440544
122,417792625.0493619
158,18985439.605535054
256,13921977.99859433
283,0.2445150133660023
307,0.2445150133660023
406,176309088.3451306
719,52847131.39285028
744,19664793.795210594
833,0.0
859,0.0
885,222498097.09869624
952,0.0012540973331988078
2,2, 1, 2, 0, 1, 0.00,60.00,Wednesday
699,-0.46397836197733635
700,9.49416139892864
701,-0.46397836197733635
702,9.49416139892864
703,1.0
704,0.0
705,0.0
10,45424720.81204641
46,5070701.536174937
84,16874172.35440544
122,201808390.29299168
158,18985439.605535054
256,11277712.08024783
283,0.19561201069280186
307,0.19561201069280186
406,182822950.6874566
719,0.0
744,12202134.83999994
833,0.0
859,0.0
885,0.0
952,0.0012182598479935365
2,2, 1, 2, 0, 2, 0.00,60.00,Wednesday
699,-0.3710926007089088
700,7.86691736479824
701,-0.3710926007089088
702,7.86691736479824
703,0.0
704,0.0
705,0.0
10,29462846.65532136
46,5638102.855022343
84,11249448.236270294
122,13357278.969315742
158,12656959.73702337
256,373160.72402878236
283,0.0
307,0.0
406,700319.2322923706
719,0.0
744,12202134.83999994
833,0.0
859,0.0
885,0.0
952,0.0
2,2, 1, 2, 0, 3, 0.00,60.00,Wednesday
699,-0.4394938047172392
700,9.029298204729202
701,-0.4394938047172392
702,9.029298204729202
703,0.0
704,0.0
705,0.0
10,34900874.15644558
46,5638102.855022343
84,16874172.35440544
122,18985439.605535054
158,18985439.605535054
256,186464.10701785467
283,0.0
307,0.0
406,0.0
719,0.0
744,12202134.83999994
833,0.0
859,0.0
885,0.0
952,0.0
2,2, 1, 2, 0, 4, 0.00,60.00,Wednesday
699,-0.439969817610989
700,9.038090029241886
701,-0.439969817610989
702,9.038090029241886
703,0.0
704,0.0
705,0.0
10,29276190.538747129
46,5638102.855022343
84,11249448.236270294
122,12656959.73702337
158,12656959.73702337
256,186504.60745455043
283,0.0
307,0.0
406,0.0
719,0.0
744,12202134.83999994
833,0.0
859,0.0
885,0.0
952,0.0
2,2, 1, 2, 0, 5, 0.00,60.00,Wednesday
699,-0.444639974871802
700,9.124862973653962
701,-0.444639974871802
702,9.124862973653962
703,0.0
704,0.0
705,0.0
10,46150403.05378356
46,5638102.855022343
84,28123620.59067574
122,31642399.34255842
158,31642399.34255842
256,186544.7680855367
283,0.0
307,0.0
406,0.0
719,0.0
744,12202134.83999994
833,0.0
859,0.0
885,0.0
952,0.0
2,2, 1, 2, 0, 6, 0.00,60.00,Wednesday
699,-0.3858651369309257
700,8.10101121173642
701,-0.3858651369309257
702,8.10101121173642
703,1.0
704,0.0
705,0.0
10,86645514.4989779
46,6760105.648809036
84,67496689.41762176
122,82283244.21864909
158,75941758.42214021
256,186584.59254715857
283,0.0
307,0.0
406,6341485.796508885
719,0.0
744,12202134.83999994
833,0.0
859,0.0
885,0.0
952,0.0
2,2, 1, 2, 0, 7, 0.00,60.00,Wednesday
699,-0.17108535503228829
700,5.606691259005274
701,-0.17108535503228829
702,5.606691259005274
703,1.0
704,0.0
705,0.0
10,106679629.13037239
46,13520211.297618073
84,73121413.53575692
122,250021829.69753099
158,82270238.2906519
256,373210.5006044023
283,0.14670900801960136
307,0.14670900801960136
406,167751591.40687908
719,0.0
744,19664793.795210594
833,0.0
859,0.0
885,0.0
952,0.0011824250915195203
2,2, 1, 2, 0, 8, 0.00,60.00,Wednesday
699,0.06374183425480244
700,5.084121892711465
701,0.06374183425480244
702,5.084121892711465
703,1.0
704,1.0
705,1.0
10,203202626.38875626
46,13520211.297618073
84,84370861.77202721
122,462206752.6938282
158,94927198.02767527
256,32799628.129545165
283,0.5868360320784055
307,0.5868360320784055
406,213102356.4924601
719,52847131.39285028
744,19664793.795210594
833,0.0
859,0.0
885,154177198.17369283
952,0.0015049346458020494
2,2, 1, 2, 0, 9, 0.00,60.00,Wednesday
699,-0.2571278282963857
700,6.372520085363647
701,-0.2571278282963857
702,6.372520085363647
703,1.0
704,0.0
705,0.0
10,206765235.77216245
46,20280316.946427108
84,101245034.12643264
122,479490830.74309268
158,113912637.63321032
256,32392753.304983297
283,0.5379330294052052
307,0.5379330294052052
406,213102356.49246014
719,52847131.39285028
744,0.0
833,0.0
859,0.0
885,152475836.61742223
952,0.0014691002508779908
2,2, 1, 2, 0,10, 0.00,60.00,Wednesday
699,-0.34503716964745198
700,7.476697407742037
701,-0.34503716964745198
702,7.476697407742037
703,1.0
704,0.0
705,0.0
10,216411953.1266043
46,20280316.946427108
84,118119206.48083808
122,465841723.4304606
158,132898077.23874536
256,25165298.305091423
283,0.44012702405880418
307,0.44012702405880418
406,206497383.264725
719,52847131.39285028
744,0.0
833,0.0
859,0.0
885,126446262.92699018
952,0.0013974314610298812
2,2, 1, 2, 0,11, 0.00,60.00,Wednesday
699,-0.33549551243030309
700,7.3410198782091389
701,-0.33549551243030309
702,7.3410198782091389
703,1.0
704,0.0
705,0.0
10,251759662.62139783
46,30421720.018776984
84,146242827.07151384
122,496883684.0926408
158,164540476.5813038
256,22247984.136895129
283,0.3912240213856037
307,0.3912240213856037
406,199553585.16386283
719,52847131.39285028
744,0.0
833,0.0
859,0.0
885,132789622.34747415
952,0.0013615970661058268
2,2, 1, 2, 0,12, 0.00,60.00,Wednesday
699,-0.3077685927375419
700,6.968677395895455
701,-0.3077685927375419
702,6.968677395895455
703,1.0
704,0.0
705,0.0
10,271311548.385567
46,30421720.018776984
84,163116999.42591927
122,438728899.9598644
158,183525916.18683885
256,24925697.54662307
283,0.44012702405880418
307,0.44012702405880418
406,199900676.56731243
719,52847131.39285028
744,0.0
833,0.0
859,0.0
885,55302307.20571312
952,0.0013974314610298812
2,2, 1, 2, 0,13, 0.00,60.00,Wednesday
699,-0.28788030382822746
700,6.72164189459329
701,-0.28788030382822746
702,6.72164189459329
703,1.0
704,0.0
705,0.0
10,257422720.2658683
46,30421720.018776984
84,151867551.189649
122,370417311.41856917
158,170868956.44981549
256,22286317.663230465
283,0.3912240213856037
307,0.3912240213856037
406,199548354.96875368
719,52847131.39285028
744,0.0
833,0.0
859,0.0
885,0.0
952,0.0013615970661058268
2,2, 1, 2, 0,14, 0.00,60.00,Wednesday
699,-0.2895396188474804
700,6.741613481354321
701,-0.2895396188474804
702,6.741613481354321
703,1.0
704,0.0
705,0.0
10,243470874.28594188
46,30421720.018776984
84,140618102.95337869
122,372889743.5537856
158,158211996.71279214
256,19583919.919610178
283,0.34232101871240319
307,0.34232101871240319
406,192230410.27626959
719,52847131.39285028
744,0.0
833,0.0
859,0.0
885,22447336.56472389
952,0.0013257626711817718
2,2, 1, 2, 0,15, 0.00,60.00,Wednesday
699,-0.3003087068196487
700,6.8740574606051869
701,-0.3003087068196487
702,6.8740574606051869
703,1.0
704,0.0
705,0.0
10,229432636.88337717
46,30421720.018776984
84,129368654.7171084
122,412956092.75536176
158,145555036.97576878
256,16795130.753351585
283,0.29341801603920278
307,0.29341801603920278
406,189520373.1262837
719,52847131.39285028
744,0.0
833,0.0
859,0.0
885,77880682.65330929
952,0.0012899282762577174
2,2, 1, 2, 0,16, 0.00,60.00,Wednesday
699,-0.316035723752146
700,7.076287292427352
701,-0.316035723752146
702,7.076287292427352
703,1.0
704,0.0
705,0.0
10,229468933.3619724
46,30421720.018776984
84,129368654.7171084
122,447850025.8015006
158,145555036.97576878
256,16831427.2319468
283,0.29341801603920278
307,0.29341801603920278
406,186640802.2475225
719,52847131.39285028
744,0.0
833,0.0
859,0.0
885,115654186.57820936
952,0.0012899282762577174
2,2, 1, 2, 0,17, 0.00,60.00,Wednesday
699,-0.31782822267703778
700,7.100001321869172
701,-0.31782822267703778
702,7.100001321869172
703,1.0
704,0.0
705,0.0
10,246235448.77644963
46,30421720.018776984
84,146242827.07151384
122,451292165.67825189
158,164540476.5813038
256,16723770.292018598
283,0.29341801603920278
307,0.29341801603920278
406,184803851.66799308
719,52847131.39285028
744,0.0
833,0.0
859,0.0
885,101947837.42895495
952,0.0012899282762577174
2,2, 1, 2, 0,18, 0.00,60.00,Wednesday
699,-0.3118860880120013
700,7.021911478298591
701,-0.3118860880120013
702,7.021911478298591
703,1.0
704,0.0
705,0.0
10,271470007.1680808
46,30421720.018776984
84,146242827.07151384
122,434220318.8732511
158,164540476.5813038
256,22293534.88836752
283,0.3912240213856037
307,0.3912240213856037
406,199260267.58432097
719,52847131.39285028
744,19664793.795210594
833,0.0
859,0.0
885,70419574.70762635
952,0.0013615970661058268
2,2, 1, 2, 0,19, 0.00,60.00,Wednesday
699,-0.2991201714239054
700,6.859199622172483
701,-0.2991201714239054
702,6.859199622172483
703,1.0
704,0.0
705,0.0
10,269323369.0283026
46,30421720.018776984
84,134993378.83524353
122,389398407.46495017
158,151883516.84428043
256,31396344.98475211
283,0.5379330294052052
307,0.5379330294052052
406,213102356.49246014
719,52847131.39285028
744,19664793.795210594
833,0.0
859,0.0
885,24412534.128209585
952,0.0014691002508779908
2,2, 1, 2, 0,20, 0.00,60.00,Wednesday
699,-0.29403680603552126
700,6.79632642830164
701,-0.29403680603552126
702,6.79632642830164
703,1.0
704,0.0
705,0.0
10,259651422.99281264
46,30421720.018776984
84,123743930.59897325
122,390772837.2515204
158,139226557.10725708
256,32973847.18549661
283,0.5868360320784055
307,0.5868360320784055
406,213102356.49246014
719,52847131.39285028
744,19664793.795210594
833,0.0
859,0.0
885,38443923.6518032
952,0.001504934645802045
2,2, 1, 2, 0,21, 0.00,60.00,Wednesday
699,-0.295476769723272
700,6.814025651527444
701,-0.295476769723272
702,6.814025651527444
703,1.0
704,0.0
705,0.0
10,243595977.0230254
46,30421720.018776984
84,112494482.36270297
122,392239807.82358947
158,126569597.37023369
256,28167849.452051317
283,0.4890300267320046
307,0.4890300267320046
406,213102356.49246014
719,52847131.39285028
744,19664793.795210594
833,0.0
859,0.0
885,52567853.96089568
952,0.001433265855953936
2,2, 1, 2, 0,22, 0.00,60.00,Wednesday
699,-0.3149825066218955
700,7.062417137836775
701,-0.3149825066218955
702,7.062417137836775
703,1.0
704,0.0
705,0.0
10,234730780.6933499
46,30421720.018776984
84,101245034.12643264
122,439110306.16343936
158,113912637.63321032
256,30552101.358610285
283,0.5379330294052052
307,0.5379330294052052
406,213102356.49246014
719,52847131.39285028
744,19664793.795210594
833,0.0
859,0.0
885,112095312.0377689
952,0.0014691002508779908
2,2, 1, 2, 0,23, 0.00,60.00,Wednesday
699,-0.3736345311964153
700,7.906534960095186
701,-0.3736345311964153
702,7.906534960095186
703,1.0
704,0.0
705,0.0
10,164889608.9946382
46,16901508.72115891
84,50622517.06321632
122,447793069.5196283
158,56956318.81660516
256,24853658.020804656
283,0.44012702405880418
307,0.44012702405880418
406,206498886.71233634
719,52847131.39285028
744,19664793.795210594
833,0.0
859,0.0
885,184337863.9906868
952,0.0013974314610298812
2,2, 1, 2, 0,24, 0.00,60.00,Wednesday
699,-0.43198043280367046
700,8.89181768115121
701,-0.43198043280367046
702,8.89181768115121
703,1.0
704,0.0
705,0.0
10,113526786.08829519
46,10141403.072349875
84,16874172.35440544
122,438605337.332453
158,18985439.605535054
256,13999285.472224907
283,0.2445150133660023
307,0.2445150133660023
406,179944179.630484
719,52847131.39285028
744,19664793.795210594
833,0.0
859,0.0
885,239675718.09643395
952,0.0012540938813336628
2,3, 1, 3, 0, 1, 0.00,60.00,Thursday
699,-0.4796430897980337
700,9.805113040697023
701,-0.4796430897980337
702,9.805113040697023
703,1.0
704,0.0
705,0.0
10,45427638.786132689
46,5070701.536174937
84,16874172.35440544
122,198163272.23317585
158,18985439.605535054
256,11280630.054334104
283,0.19561201069280186
307,0.19561201069280186
406,179177832.62764079
719,0.0
744,12202134.83999994
833,0.0
859,0.0
885,0.0
952,0.001218256549018817
2,3, 1, 3, 0, 2, 0.00,60.00,Thursday
699,-0.4110247047075329
700,8.521168541641629
701,-0.4110247047075329
702,8.521168541641629
703,0.0
704,0.0
705,0.0
10,29276270.072873519
46,5638102.855022343
84,11249448.236270294
122,14191197.371019084
158,12656959.73702337
256,186584.14158093988
283,0.0
307,0.0
406,1534237.6339957147
719,0.0
744,12202134.83999994
833,0.0
859,0.0
885,0.0
952,0.0
2,3, 1, 3, 0, 3, 0.00,60.00,Thursday
699,-0.4207761133083401
700,8.691301342559726
701,-0.4207761133083401
702,8.691301342559726
703,0.0
704,0.0
705,0.0
10,35087657.32386891
46,5638102.855022343
84,16874172.35440544
122,18985439.605535054
158,18985439.605535054
256,373247.2744411858
283,0.0
307,0.0
406,0.0
719,0.0
744,12202134.83999994
833,0.0
859,0.0
885,0.0
952,0.0
2,3, 1, 3, 0, 4, 0.00,60.00,Thursday
699,-0.42488323374473038
700,8.76417842852527
701,-0.42488323374473038
702,8.76417842852527
703,0.0
704,0.0
705,0.0
10,29276272.61685383
46,5638102.855022343
84,11249448.236270294
122,12656959.73702337
158,12656959.73702337
256,186586.6855612491
283,0.0
307,0.0
406,0.0
719,0.0
744,12202134.83999994
833,0.0
859,0.0
885,0.0
952,0.0
2,3, 1, 3, 0, 5, 0.00,60.00,Thursday
699,-0.48011256107225627
700,9.814595546709868
701,-0.48011256107225627
702,9.814595546709868
703,0.0
704,0.0
705,0.0
10,46150367.7215974
46,5638102.855022343
84,28123620.59067574
122,31642399.34255842
158,31642399.34255842
256,186509.43589938415
283,0.0
307,0.0
406,0.0
719,0.0
744,12202134.83999994
833,0.0
859,0.0
885,0.0
952,0.0
2,3, 1, 3, 0, 6, 0.00,60.00,Thursday
699,-0.4504565606686742
700,9.23424816100038
701,-0.4504565606686742
702,9.23424816100038
703,1.0
704,0.0
705,0.0
10,86645557.00902605
46,6760105.648809036
84,67496689.41762176
122,82283239.2920816
158,75941758.42214021
256,186627.1025953103
283,0.0
307,0.0
406,6341480.869941384
719,0.0
744,12202134.83999994
833,0.0
859,0.0
885,0.0
952,0.0
2,3, 1, 3, 0, 7, 0.00,60.00,Thursday
699,-0.2511067272696155
700,6.308826477299647
701,-0.2511067272696155
702,6.308826477299647
703,1.0
704,0.0
705,0.0
10,106493007.95399094
46,13520211.297618073
84,73121413.53575692
122,250073488.72078306
158,82270238.2906519
256,186589.32422294719
283,0.14670900801960136
307,0.14670900801960136
406,167803250.43013115
719,0.0
744,19664793.795210594
833,0.0
859,0.0
885,0.0
952,0.0011824218959464526
2,3, 1, 3, 0, 8, 0.00,60.00,Thursday
699,-0.019330922964795644
700,5.007735587545525
701,-0.019330922964795644
702,5.007735587545525
703,1.0
704,0.0
705,0.0
10,203350142.93723766
46,13520211.297618073
84,84370861.77202721
122,523386660.89831998
158,94927198.02767527
256,32947144.678026573
283,0.5868360320784055
307,0.5868360320784055
406,213102356.4924601
719,52847131.39285028
744,19664793.795210594
833,0.0
859,0.0
885,215357106.37818457
952,0.001504930578628805
2,3, 1, 3, 0, 9, 0.00,60.00,Thursday
699,-0.3086166977649629
700,6.979583658670251
701,-0.3086166977649629
702,6.979583658670251
703,1.0
704,0.0
705,0.0
10,207346329.65267576
46,20280316.946427108
84,101245034.12643264
122,544470407.8328447
158,113912637.63321032
256,32973847.18549661
283,0.5379330294052052
307,0.5379330294052052
406,213102356.49246014
719,52847131.39285028
744,0.0
833,0.0
859,0.0
885,217455413.70717425
952,0.0014690962805492786
2,3, 1, 3, 0,10, 0.00,60.00,Thursday
699,-0.3989671087260447
700,8.316431424307766
701,-0.3989671087260447
702,8.316431424307766
703,1.0
704,0.0
705,0.0
10,216205985.56576867
46,20280316.946427108
84,118119206.48083808
122,553593891.3522613
158,132898077.23874536
256,24959330.74425579
283,0.44012702405880418
307,0.44012702405880418
406,206505852.07359386
719,52847131.39285028
744,0.0
833,0.0
859,0.0
885,214189962.03992213
952,0.0013974276843902346
2,3, 1, 3, 0,11, 0.00,60.00,Thursday
699,-0.3902292336372704
700,8.171949953546758
701,-0.3902292336372704
702,8.171949953546758
703,1.0
704,0.0
705,0.0
10,251768159.8982862
46,30421720.018776984
84,146242827.07151384
122,575125357.9732008
158,164540476.5813038
256,22256481.413783529
283,0.3912240213856037
307,0.3912240213856037
406,199570592.3229697
719,52847131.39285028
744,0.0
833,0.0
859,0.0
885,211014289.06892724
952,0.0013615933863107126
2,3, 1, 3, 0,12, 0.00,60.00,Thursday
699,-0.366094305318092
700,7.789819172843352
701,-0.366094305318092
702,7.789819172843352
703,1.0
704,0.0
705,0.0
10,271476141.9676042
46,30421720.018776984
84,163116999.42591927
122,526519113.47960618
158,183525916.18683885
256,25090291.1286603
283,0.44012702405880418
307,0.44012702405880418
406,199916888.42876906
719,52847131.39285028
744,0.0
833,0.0
859,0.0
885,143076308.86399833
952,0.0013974276843902346
2,3, 1, 3, 0,13, 0.00,60.00,Thursday
699,-0.34704254601617959
700,7.505704827068072
701,-0.34704254601617959
702,7.505704827068072
703,1.0
704,0.0
705,0.0
10,257418166.38048873
46,30421720.018776984
84,151867551.189649
122,462774716.45717647
158,170868956.44981549
256,22281763.77785093
283,0.3912240213856037
307,0.3912240213856037
406,199563425.514361
719,52847131.39285028
744,0.0
833,0.0
859,0.0
885,92342334.49299994
952,0.0013615933863107126
2,3, 1, 3, 0,14, 0.00,60.00,Thursday
699,-0.34665596065566525
700,7.500099635330827
701,-0.34665596065566525
702,7.500099635330827
703,1.0
704,0.0
705,0.0
10,243395444.98263598
46,30421720.018776984
84,140618102.95337869
122,471019717.86584016
158,158211996.71279214
256,19508490.616304287
283,0.34232101871240319
307,0.34232101871240319
406,192253156.91572625
719,52847131.39285028
744,0.0
833,0.0
859,0.0
885,120554564.23732178
952,0.00132575908823119
2,3, 1, 3, 0,15, 0.00,60.00,Thursday
699,-0.35702167527505976
700,7.652594340466237
701,-0.35702167527505976
702,7.652594340466237
703,1.0
704,0.0
705,0.0
10,229426044.44784058
46,30421720.018776984
84,129368654.7171084
122,517762796.2903601
158,145555036.97576878
256,16788538.31781497
283,0.29341801603920278
307,0.29341801603920278
406,191674691.2596714
719,52847131.39285028
744,0.0
833,0.0
859,0.0
885,180533068.05491994
952,0.0012899247901516679
2,3, 1, 3, 0,16, 0.00,60.00,Thursday
699,-0.3891892110027958
700,8.154970448723745
701,-0.3891892110027958
702,8.154970448723745
703,1.0
704,0.0
705,0.0
10,229398972.40096707
46,30421720.018776984
84,129368654.7171084
122,551558566.4098171
158,145555036.97576878
256,16761466.270941468
283,0.29341801603920278
307,0.29341801603920278
406,184549049.04224146
719,52847131.39285028
744,0.0
833,0.0
859,0.0
885,221454480.3918068