Program Version,EnergyPlus, Version 9.1.0-fafb9d5652, YMD=2020.03.26 13:33
1,5,Environment Title[],Latitude[deg],Longitude[deg],Time Zone[],Elevation[m]
2,8,Day of Simulation[],Month[],Day of Month[],DST Indicator[1=yes 0=no],Hour[],StartMinute[],EndMinute[],DayType
3,5,Cumulative Day of Simulation[],Month[],Day of Month[],DST Indicator[1=yes 0=no],DayType  ! When Daily Report Variables Requested
4,2,Cumulative Days of Simulation[],Month[]  ! When Monthly Report Variables Requested
5,1,Cumulative Days of Simulation[] ! When Run Period Report Variables Requested
6,1,Calendar Year of Simulation[] ! When Annual Report Variables Requested
7,9,Environment,Site Outdoor Air Drybulb Temperature [C] !Monthly [Value,Min,Day,Hour,Minute,Max,Day,Hour,Minute]
8,1,Environment,Site Outdoor Air Wetbulb Temperature [C] !TimeStep
636,1,BUILDING STORY 1 THERMALZONE,Zone Air Temperature [C] !Hourly
637,7,BUILDING STORY 1 THERMALZONE,Zone Air Relative Humidity [%] !Daily [Value,Min,Hour,Minute,Max,Hour,Minute]
676,1,BUILDING STORY 2 THERMALZONE,Zone Air Temperature [C] !Hourly
677,7,BUILDING STORY 2 THERMALZONE,Zone Air Relative Humidity [%] !Daily [Value,Min,Hour,Minute,Max,Hour,Minute]
716,1,BUILDING STORY 3 THERMALZONE,Zone Air Temperature [C] !Hourly
717,7,BUILDING STORY 3 THERMALZONE,Zone Air Relative Humidity [%] !Daily [Value,Min,Hour,Minute,Max,Hour,Minute]
11,1,Electricity:Facility [J] !TimeStep
214,1,Gas:Facility [J] !TimeStep
End of Data Dictionary
1,BUFFALO NIAGARA INTL AP ANN CLG .4% CONDNS DB=>MWB 1,  42.93, -78.73,  -5.00, 215.00
2,1, 7,21, 0, 1, 0.00,60.00,SummerDesignDay
8,19.36840579326866
11,1080680991.6685067
214,993132653.2159026
2,1, 7,21, 0, 1, 0.00,60.00,SummerDesignDay
636,25.9861857338296
676,29.211380027627173
716,29.15337626632908
2,1, 7,21, 0, 2, 0.00,60.00,SummerDesignDay
8,19.25226217922265
11,966068808.4325968
214,579516847.1554104
2,1, 7,21, 0, 2, 0.00,60.00,SummerDesignDay
636,29.769522190609217
676,29.44687657566829
716,29.752731211204197
2,1, 7,21, 0, 3, 0.00,60.00,SummerDesignDay
8,19.164819553782637
11,978619001.5352638
214,558219215.0162603
2,1, 7,21, 0, 3, 0.00,60.00,SummerDesignDay
636,29.981984928687557
676,29.517085790576279
716,29.83243602214165
2,1, 7,21, 0, 4, 0.00,60.00,SummerDesignDay
8,19.0770792448193
11,979363010.9641378
214,558219215.0162603
2,1, 7,21, 0, 4, 0.00,60.00,SummerDesignDay
636,29.97698812652249
676,29.587836808493127
716,29.866305180390815
2,1, 7,21, 0, 5, 0.00,60.00,SummerDesignDay
8,19.018427637799467
11,982174110.6544551
214,558219215.0162603
2,1, 7,21, 0, 5, 0.00,60.00,SummerDesignDay
636,29.974496086578609
676,29.59245011953957
716,29.907060256417
2,1, 7,21, 0, 6, 0.00,60.00,SummerDesignDay
8,19.0770792448193
11,1123565236.45207
214,558219215.0162603
2,1, 7,21, 0, 6, 0.00,60.00,SummerDesignDay
636,28.131485637667013
676,26.36763200277379
716,26.384818943694943
2,1, 7,21, 0, 7, 0.00,60.00,SummerDesignDay
8,19.281346189070228
11,1299808183.4780739
214,993807098.9179971
2,1, 7,21, 0, 7, 0.00,60.00,SummerDesignDay
636,26.18964369709496
676,24.221485046028996
716,24.23498204988153
2,1, 7,21, 0, 8, 0.00,60.00,SummerDesignDay
8,19.770887505670989
11,1390149399.5546909
214,1109060582.9913679
2,1, 7,21, 0, 8, 0.00,60.00,SummerDesignDay
636,25.96982891827178
676,23.978351184091375
716,23.977896574258478
2,1, 7,21, 0, 9, 0.00,60.00,SummerDesignDay
8,20.30732185289352
11,1388881391.54544
214,1106122769.2681807
2,1, 7,21, 0, 9, 0.00,60.00,SummerDesignDay
636,25.966188033786986
676,23.976119518403185
716,23.975745461839467
2,1, 7,21, 0,10, 0.00,60.00,SummerDesignDay
8,20.778037156782458
11,1402201662.6093815
214,1074315876.9114602
2,1, 7,21, 0,10, 0.00,60.00,SummerDesignDay
636,25.96454723302075
676,23.974327573642304
716,23.97378428620219
2,1, 7,21, 0,11, 0.00,60.00,SummerDesignDay
8,21.186337137460165
11,1421595816.413223
214,1070267319.1463423
2,1, 7,21, 0,11, 0.00,60.00,SummerDesignDay
636,25.963517530314947
676,23.973022944423066
716,23.97245240865677
2,1, 7,21, 0,12, 0.00,60.00,SummerDesignDay
8,21.45495938709981
11,1446135630.7438224
214,1074360067.6770523
2,1, 7,21, 0,12, 0.00,60.00,SummerDesignDay
636,25.963367208038006
676,23.972772404635007
716,23.972226609780035
2,1, 7,21, 0,13, 0.00,60.00,SummerDesignDay
8,21.667839996742449
11,1451454090.5515087
214,1070313474.9792584
2,1, 7,21, 0,13, 0.00,60.00,SummerDesignDay
636,25.963425730431177
676,23.97280650053464
716,23.972251068421323
2,1, 7,21, 0,14, 0.00,60.00,SummerDesignDay
8,21.799990419629109
11,1453233289.1879383
214,1039159553.9687082
2,1, 7,21, 0,14, 0.00,60.00,SummerDesignDay
636,25.963447149705396
676,23.972840528875346
716,23.972257698844847
2,1, 7,21, 0,15, 0.00,60.00,SummerDesignDay
8,21.799990419629109
11,1444002882.5960532
214,1033826808.1976235
2,1, 7,21, 0,15, 0.00,60.00,SummerDesignDay
636,25.963491062543495
676,23.972905058043879
716,23.972298850346275
2,1, 7,21, 0,16, 0.00,60.00,SummerDesignDay
8,21.641326796728476
11,1443961772.5892773
214,1033802253.2374665
2,1, 7,21, 0,16, 0.00,60.00,SummerDesignDay
636,25.96357520303963
676,23.97284602207338
716,23.97238674341515
2,1, 7,21, 0,17, 0.00,60.00,SummerDesignDay
8,21.42822317147698
11,1437810700.347246
214,1033777198.6949307
2,1, 7,21, 0,17, 0.00,60.00,SummerDesignDay
636,25.96344473947241
676,23.972799739640825
716,23.972425421829159
2,1, 7,21, 0,18, 0.00,60.00,SummerDesignDay
8,21.15931786227956
11,1433060474.4835227
214,1070228367.496736
2,1, 7,21, 0,18, 0.00,60.00,SummerDesignDay
636,25.96344035838425
676,23.972866859550498
716,23.972532697383035
2,1, 7,21, 0,19, 0.00,60.00,SummerDesignDay
8,20.750583661392644
11,1454074709.3161064
214,1106151405.2765814
2,1, 7,21, 0,19, 0.00,60.00,SummerDesignDay
636,25.963641835858455
676,23.97299792498064
716,23.97274965143323
2,1, 7,21, 0,20, 0.00,60.00,SummerDesignDay
8,20.446661088459409
11,1438716295.0956434
214,1109065716.9588576
2,1, 7,21, 0,20, 0.00,60.00,SummerDesignDay
636,25.964319507071143
676,23.97328261554306
716,23.97336405198069
2,1, 7,21, 0,21, 0.00,60.00,SummerDesignDay
8,20.19530361990708
11,1450032306.1320785
214,1103089882.177671
2,1, 7,21, 0,21, 0.00,60.00,SummerDesignDay
636,25.964885555841268
676,23.973585977714003
716,23.973875675132466
2,1, 7,21, 0,22, 0.00,60.00,SummerDesignDay
8,19.941485234887624
11,1439610062.4920934
214,1090240939.8534888
2,1, 7,21, 0,22, 0.00,60.00,SummerDesignDay
636,25.96520060912518
676,23.973784287822924
716,23.974170296967978
2,1, 7,21, 0,23, 0.00,60.00,SummerDesignDay
8,19.7423381019073
11,1407623522.1368373
214,1082228788.1745365
2,1, 7,21, 0,23, 0.00,60.00,SummerDesignDay
636,25.965411315104139
676,23.973930127563049
716,23.974384525046675
2,1, 7,21, 0,24, 0.00,60.00,SummerDesignDay
8,19.54165603023991
11,1359369545.312949
214,1010940303.5080496
2,1, 7,21, 0,24, 0.00,60.00,SummerDesignDay
636,25.96560170869502
676,23.974068308388035
716,23.974581590440626
3,1, 7,21, 0,SummerDesignDay
637,55.50406290895719,51.23102710518725, 2, 7,60.98352877454247, 6,10
677,61.596571196608689,54.89189158945865, 1,10,75.461040572319, 6,20
717,60.820243767453458,55.16391218888624, 1,10,74.29758953455665, 6,10
4,1, 7
7,25.312875000000003,21.0,21, 5,60,30.3,21,14,60
1,BUFFALO NIAGARA INTL AP ANN CLG .4% CONDNS WB=>MDB 1,  42.93, -78.73,  -5.00, 215.00
2,1, 7,21, 0, 1, 0.00,60.00,SummerDesignDay
8,19.615996954992807
11,1070792248.0499238
214,993132653.2159026
2,1, 7,21, 0, 1, 0.00,60.00,SummerDesignDay
636,25.986148965122149
676,28.45350588629625
716,28.36565243413506
2,1, 7,21, 0, 2, 0.00,60.00,SummerDesignDay
8,19.243988037109376
11,958297062.6448619
214,579027654.4425997
2,1, 7,21, 0, 2, 0.00,60.00,SummerDesignDay
636,29.74045246570481
676,28.544346866935123
716,28.77460537975549
2,1, 7,21, 0, 3, 0.00,60.00,SummerDesignDay
8,18.96499632356402
11,970703134.3099924
214,558219215.0162603
2,1, 7,21, 0, 3, 0.00,60.00,SummerDesignDay
636,29.982463307042907
676,28.522376721345613
716,28.759197053360965
2,1, 7,21, 0, 4, 0.00,60.00,SummerDesignDay
8,18.685989379882814
11,971279464.2399383
214,558219215.0162603
2,1, 7,21, 0, 4, 0.00,60.00,SummerDesignDay
636,29.977382676325197
676,28.57390710574197
716,28.821132008032014
2,1, 7,21, 0, 5, 0.00,60.00,SummerDesignDay
8,18.49999810986028
11,973800687.294575
214,558219215.0162603
2,1, 7,21, 0, 5, 0.00,60.00,SummerDesignDay
636,29.97490208251108
676,28.592872052116335
716,28.865794434090647
2,1, 7,21, 0, 6, 0.00,60.00,SummerDesignDay
8,18.685989379882814
11,1095385488.0911744
214,558219215.0162603
2,1, 7,21, 0, 6, 0.00,60.00,SummerDesignDay
636,28.178770548157197
676,26.32801010065435
716,26.349523266650498
2,1, 7,21, 0, 7, 0.00,60.00,SummerDesignDay
8,19.336990356445314
11,1254579264.5973786
214,993807100.0485468
2,1, 7,21, 0, 7, 0.00,60.00,SummerDesignDay
636,26.175522392555373
676,24.22960130304761
716,24.226706497891678
2,1, 7,21, 0, 8, 0.00,60.00,SummerDesignDay
8,20.917992548817627
11,1368555824.3109947
214,1109060582.9937225
2,1, 7,21, 0, 8, 0.00,60.00,SummerDesignDay
636,25.96987666023116
676,23.979414594905966
716,23.978753903299844
2,1, 7,21, 0, 9, 0.00,60.00,SummerDesignDay
8,22.420023807696297
11,1386884190.5355423
214,1106122769.2708076
2,1, 7,21, 0, 9, 0.00,60.00,SummerDesignDay
636,25.966688619258
676,23.97677837301425
716,23.97642023040905
2,1, 7,21, 0,10, 0.00,60.00,SummerDesignDay
8,22.854695006230427
11,1403999102.787635
214,1074315876.9146593
2,1, 7,21, 0,10, 0.00,60.00,SummerDesignDay
636,25.96466880147524
676,23.974693014194285
716,23.974095304119975
2,1, 7,21, 0,11, 0.00,60.00,SummerDesignDay
8,23.232104587122938
11,1424132557.8209646
214,1070267319.1496848
2,1, 7,21, 0,11, 0.00,60.00,SummerDesignDay
636,25.96337630349512
676,23.973063948681028
716,23.972421085117249
2,1, 7,21, 0,12, 0.00,60.00,SummerDesignDay
8,23.480593542408348
11,1448153547.5617252
214,1074360067.6801439
2,1, 7,21, 0,12, 0.00,60.00,SummerDesignDay
636,25.96318307790713
676,23.972708847373068
716,23.972098613871176
2,1, 7,21, 0,13, 0.00,60.00,SummerDesignDay
8,23.677626430315248
11,1453353146.6564546
214,1070313474.9824874
2,1, 7,21, 0,13, 0.00,60.00,SummerDesignDay
636,25.963249229069324
676,23.972720449814106
716,23.972097203564258
2,1, 7,21, 0,14, 0.00,60.00,SummerDesignDay
8,23.799986320868798
11,1455229500.320241
214,1039159553.9723797
2,1, 7,21, 0,14, 0.00,60.00,SummerDesignDay
636,25.963260718584555
676,23.973068201541147
716,23.97216331991682
2,1, 7,21, 0,15, 0.00,60.00,SummerDesignDay
8,23.799986320868798
11,1445979401.085071
214,1033826808.2016878
2,1, 7,21, 0,15, 0.00,60.00,SummerDesignDay
636,25.963290741371148
676,23.97335713943681
716,23.97225726146446
2,1, 7,21, 0,16, 0.00,60.00,SummerDesignDay
8,23.653081835774505
11,1446142530.31585
214,1033802253.241613
2,1, 7,21, 0,16, 0.00,60.00,SummerDesignDay
636,25.96337203556082
676,23.972960981470544
716,23.972214017803393
2,1, 7,21, 0,17, 0.00,60.00,SummerDesignDay
8,23.4558543827806
11,1440212172.2673476
214,1033777198.6991626
2,1, 7,21, 0,17, 0.00,60.00,SummerDesignDay
636,25.96325016164829
676,23.972730362510445
716,23.972198459026495
2,1, 7,21, 0,18, 0.00,60.00,SummerDesignDay
8,23.207119318496696
11,1435476906.2506023
214,1070228367.5002432
2,1, 7,21, 0,18, 0.00,60.00,SummerDesignDay
636,25.963228504750818
676,23.972713738214194
716,23.97226220542452
2,1, 7,21, 0,19, 0.00,60.00,SummerDesignDay
8,22.82933132300861
11,1456461585.7987104
214,1106151405.2791544
2,1, 7,21, 0,19, 0.00,60.00,SummerDesignDay
636,25.96343167297341
676,23.97280149288492
716,23.972452574063277
2,1, 7,21, 0,20, 0.00,60.00,SummerDesignDay
8,22.548645905899027
11,1440335029.032794
214,1109065716.9612826
2,1, 7,21, 0,20, 0.00,60.00,SummerDesignDay
636,25.964103700163834
676,23.973050888933288
716,23.973034381355789
2,1, 7,21, 0,21, 0.00,60.00,SummerDesignDay
8,22.312987690310977
11,1451867495.8624995
214,1103089882.1804436
2,1, 7,21, 0,21, 0.00,60.00,SummerDesignDay
636,25.96470278006614
676,23.973366233680236
716,23.97361017205506
2,1, 7,21, 0,22, 0.00,60.00,SummerDesignDay
8,21.475995587251039
11,1432062136.383615
214,1090240937.5928295
2,1, 7,21, 0,22, 0.00,60.00,SummerDesignDay
636,25.965066138025695
676,23.97364649277188
716,23.973995866092968
2,1, 7,21, 0,23, 0.00,60.00,SummerDesignDay
8,20.824995071347869
11,1392033091.5674966
214,1082228788.1828473
2,1, 7,21, 0,23, 0.00,60.00,SummerDesignDay
636,25.965248450531584
676,23.973757647121109
716,23.97418371463945
2,1, 7,21, 0,24, 0.00,60.00,SummerDesignDay
8,20.173995840857065
11,1335926788.4334338
214,1010940303.5245195
2,1, 7,21, 0,24, 0.00,60.00,SummerDesignDay
636,25.965511439212546
676,23.973981731685944
716,23.974484672878537
3,1, 7,21, 0,SummerDesignDay
637,57.193920984406869,52.95745338311656, 2, 7,62.343990621519598, 6,12
677,65.58326215612031,60.071764366049389, 8,60,78.14233569816973, 2,60
717,64.88231987875126,59.24202135786848, 8,60,76.75131820515408, 6,12
4,1, 7
7,22.812875000000003,18.5,21, 5,60,27.8,21,14,60
1,BUFFALO NIAGARA INTL AP ANN HTG 99.6% CONDNS DB 1,  42.93, -78.73,  -5.00, 215.00
2,1, 1,21, 0, 1, 0.00,60.00,WinterDesignDay
8,-16.3
11,335962238.2993265
214,2381632261.3521358
2,1, 1,21, 0, 1, 0.00,60.00,WinterDesignDay
636,19.00000000000002
676,21.000000000000005
716,20.999999999999984
2,1, 1,21, 0, 2, 0.00,60.00,WinterDesignDay
8,-16.3
11,302754594.33472427
214,1841477598.178409
2,1, 1,21, 0, 2, 0.00,60.00,WinterDesignDay
636,18.99999999999999
676,21.0
716,20.999999999999998
2,1, 1,21, 0, 3, 0.00,60.00,WinterDesignDay
8,-16.3
11,302613314.20557489
214,1829166834.6624675
2,1, 1,21, 0, 3, 0.00,60.00,WinterDesignDay
636,19.00000000000004
676,21.00000000000004
716,20.999999999999998
2,1, 1,21, 0, 4, 0.00,60.00,WinterDesignDay
8,-16.3
11,302613354.6611632
214,1829168593.5784393
2,1, 1,21, 0, 4, 0.00,60.00,WinterDesignDay
636,18.999999999999976
676,21.00000000000002
716,21.00000000000004
2,1, 1,21, 0, 5, 0.00,60.00,WinterDesignDay
8,-16.3
11,302613394.7747692
214,1829170252.1567093
2,1, 1,21, 0, 5, 0.00,60.00,WinterDesignDay
636,18.99999999999999
676,21.00000000000001
716,20.99999999999998
2,1, 1,21, 0, 6, 0.00,60.00,WinterDesignDay
8,-16.3
11,302799202.713428
214,1829171816.144851
2,1, 1,21, 0, 6, 0.00,60.00,WinterDesignDay
636,19.00000000000002
676,20.99999999999997
716,21.00000000000004
2,1, 1,21, 0, 7, 0.00,60.00,WinterDesignDay
8,-16.3
11,319643963.2938713
214,2376219761.991907
2,1, 1,21, 0, 7, 0.00,60.00,WinterDesignDay
636,18.999999999999987
676,21.00000000000002
716,21.000000000000019
2,1, 1,21, 0, 8, 0.00,60.00,WinterDesignDay
8,-16.3
11,319644004.0214269
214,2376219392.160494
2,1, 1,21, 0, 8, 0.00,60.00,WinterDesignDay
636,18.99999999999999
676,20.99999999999994
716,20.99999999999996
2,1, 1,21, 0, 9, 0.00,60.00,WinterDesignDay
8,-16.3
11,268121793.09233848
214,2376218954.6909196
2,1, 1,21, 0, 9, 0.00,60.00,WinterDesignDay
636,19.000000000000015
676,20.999999999999966
716,20.99999999999998
2,1, 1,21, 0,10, 0.00,60.00,WinterDesignDay
8,-16.3
11,353290613.2379157
214,2488640303.2442429
2,1, 1,21, 0,10, 0.00,60.00,WinterDesignDay
636,19.00000000000001
676,20.99999999999998
716,20.99999999999999
2,1, 1,21, 0,11, 0.00,60.00,WinterDesignDay
8,-16.3
11,342899028.0049307
214,2478406563.401537
2,1, 1,21, 0,11, 0.00,60.00,WinterDesignDay
636,18.999999999999984
676,21.00000000000003
716,20.999999999999994
2,1, 1,21, 0,12, 0.00,60.00,WinterDesignDay
8,-16.3
11,351481980.84832569
214,2498859051.4907715
2,1, 1,21, 0,12, 0.00,60.00,WinterDesignDay
636,19.000000000000015
676,21.000000000000015
716,21.000000000000044
2,1, 1,21, 0,13, 0.00,60.00,WinterDesignDay
8,-16.3
11,350826965.75753638
214,2498860088.772502
2,1, 1,21, 0,13, 0.00,60.00,WinterDesignDay
636,19.000000000000008
676,21.000000000000047
716,20.99999999999998
2,1, 1,21, 0,14, 0.00,60.00,WinterDesignDay
8,-16.3
11,342676031.90084996
214,2478413366.745018
2,1, 1,21, 0,14, 0.00,60.00,WinterDesignDay
636,18.999999999999987
676,20.99999999999999
716,20.99999999999999
2,1, 1,21, 0,15, 0.00,60.00,WinterDesignDay
8,-16.3
11,334772601.74666038
214,2456889767.8474867
2,1, 1,21, 0,15, 0.00,60.00,WinterDesignDay
636,19.000000000000044
676,20.99999999999999
716,21.00000000000004
2,1, 1,21, 0,16, 0.00,60.00,WinterDesignDay
8,-16.3
11,334431425.79944208
214,2456880090.9599959
2,1, 1,21, 0,16, 0.00,60.00,WinterDesignDay
636,18.999999999999998
676,20.99999999999999
716,20.99999999999998
2,1, 1,21, 0,17, 0.00,60.00,WinterDesignDay
8,-16.3
11,326665790.8276699
214,2455735423.0899937
2,1, 1,21, 0,17, 0.00,60.00,WinterDesignDay
636,19.0
676,20.999999999999998
716,21.000000000000037
2,1, 1,21, 0,18, 0.00,60.00,WinterDesignDay
8,-16.3
11,386352180.38162627
214,2456894820.919593
2,1, 1,21, 0,18, 0.00,60.00,WinterDesignDay
636,19.000000000000026
676,20.999999999999994
716,20.999999999999969
2,1, 1,21, 0,19, 0.00,60.00,WinterDesignDay
8,-16.3
11,414194569.45651677
214,2498865184.11684
2,1, 1,21, 0,19, 0.00,60.00,WinterDesignDay
636,18.999999999999966
676,21.000000000000033
716,20.999999999999984
2,1, 1,21, 0,20, 0.00,60.00,WinterDesignDay
8,-16.3
11,415840890.44756707
214,2498865872.554701
2,1, 1,21, 0,20, 0.00,60.00,WinterDesignDay
636,19.000000000000008
676,20.999999999999944
716,20.999999999999998
2,1, 1,21, 0,21, 0.00,60.00,WinterDesignDay
8,-16.3
11,404653334.58699008
214,2498866521.8698399
2,1, 1,21, 0,21, 0.00,60.00,WinterDesignDay
636,18.999999999999976
676,20.99999999999997
716,20.999999999999998
2,1, 1,21, 0,22, 0.00,60.00,WinterDesignDay
8,-16.3
11,413785272.1324792
214,2498867134.293812
2,1, 1,21, 0,22, 0.00,60.00,WinterDesignDay
636,18.99999999999999
676,20.99999999999999
716,20.999999999999998
2,1, 1,21, 0,23, 0.00,60.00,WinterDesignDay
8,-16.3
11,386309037.3664787
214,2477872249.706448
2,1, 1,21, 0,23, 0.00,60.00,WinterDesignDay
636,18.999999999999994
676,21.00000000000003
716,21.000000000000005
2,1, 1,21, 0,24, 0.00,60.00,WinterDesignDay
8,-16.3
11,369747998.9556638
214,2410298958.9330217
2,1, 1,21, 0,24, 0.00,60.00,WinterDesignDay
636,18.999999999999994
676,21.000000000000015
716,21.000000000000047
3,1, 1,21, 0,WinterDesignDay
637,6.666945771962965,6.666945556972053, 1,60,6.666945953878348, 2,60
677,5.890092407877592,5.890092235236944, 1,60,5.890092580518236, 6,60
717,5.890092465424474,5.890092235236944, 4,60,5.890092580518236, 1,60
4,1, 1
7,-16.300000000000009,-16.3,21, 1,60,-16.3,21, 1,60
End of Data
 Number of Records Written=         444
